# vtk DataFile Version 3.0
vtk output
ASCII
DATASET STRUCTURED_GRID
DIMENSIONS 51 51 1
POINTS 2601 float
0.0 0.0 0.0
0.02 0.0 0.0
0.04 0.0 0.0
0.06 0.0 0.0
0.08 0.0 0.0
0.1 0.0 0.0
0.12 0.0 0.0
0.14 0.0 0.0
0.16 0.0 0.0
0.18 0.0 0.0
0.2 0.0 0.0
0.22 0.0 0.0
0.24 0.0 0.0
0.26 0.0 0.0
0.28 0.0 0.0
0.3 0.0 0.0
0.32 0.0 0.0
0.34 0.0 0.0
0.36 0.0 0.0
0.38 0.0 0.0
0.4 0.0 0.0
0.42 0.0 0.0
0.44 0.0 0.0
0.46 0.0 0.0
0.48 0.0 0.0
0.5 0.0 0.0
0.52 0.0 0.0
0.54 0.0 0.0
0.56 0.0 0.0
0.58 0.0 0.0
0.6 0.0 0.0
0.62 0.0 0.0
0.64 0.0 0.0
0.66 0.0 0.0
0.68 0.0 0.0
0.7000000000000001 0.0 0.0
0.72 0.0 0.0
0.74 0.0 0.0
0.76 0.0 0.0
0.78 0.0 0.0
0.8 0.0 0.0
0.8200000000000001 0.0 0.0
0.84 0.0 0.0
0.86 0.0 0.0
0.88 0.0 0.0
0.9 0.0 0.0
0.92 0.0 0.0
0.9400000000000001 0.0 0.0
0.96 0.0 0.0
0.98 0.0 0.0
1.0 0.0 0.0
0.0 0.02 0.0
0.02 0.02 0.0
0.04 0.02 0.0
0.06 0.02 0.0
0.08 0.02 0.0
0.1 0.02 0.0
0.12 0.02 0.0
0.14 0.02 0.0
0.16 0.02 0.0
0.18 0.02 0.0
0.2 0.02 0.0
0.22 0.02 0.0
0.24 0.02 0.0
0.26 0.02 0.0
0.28 0.02 0.0
0.3 0.02 0.0
0.32 0.02 0.0
0.34 0.02 0.0
0.36 0.02 0.0
0.38 0.02 0.0
0.4 0.02 0.0
0.42 0.02 0.0
0.44 0.02 0.0
0.46 0.02 0.0
0.48 0.02 0.0
0.5 0.02 0.0
0.52 0.02 0.0
0.54 0.02 0.0
0.56 0.02 0.0
0.58 0.02 0.0
0.6 0.02 0.0
0.62 0.02 0.0
0.64 0.02 0.0
0.66 0.02 0.0
0.68 0.02 0.0
0.7000000000000001 0.02 0.0
0.72 0.02 0.0
0.74 0.02 0.0
0.76 0.02 0.0
0.78 0.02 0.0
0.8 0.02 0.0
0.8200000000000001 0.02 0.0
0.84 0.02 0.0
0.86 0.02 0.0
0.88 0.02 0.0
0.9 0.02 0.0
0.92 0.02 0.0
0.9400000000000001 0.02 0.0
0.96 0.02 0.0
0.98 0.02 0.0
1.0 0.02 0.0
0.0 0.04 0.0
0.02 0.04 0.0
0.04 0.04 0.0
0.06 0.04 0.0
0.08 0.04 0.0
0.1 0.04 0.0
0.12 0.04 0.0
0.14 0.04 0.0
0.16 0.04 0.0
0.18 0.04 0.0
0.2 0.04 0.0
0.22 0.04 0.0
0.24 0.04 0.0
0.26 0.04 0.0
0.28 0.04 0.0
0.3 0.04 0.0
0.32 0.04 0.0
0.34 0.04 0.0
0.36 0.04 0.0
0.38 0.04 0.0
0.4 0.04 0.0
0.42 0.04 0.0
0.44 0.04 0.0
0.46 0.04 0.0
0.48 0.04 0.0
0.5 0.04 0.0
0.52 0.04 0.0
0.54 0.04 0.0
0.56 0.04 0.0
0.58 0.04 0.0
0.6 0.04 0.0
0.62 0.04 0.0
0.64 0.04 0.0
0.66 0.04 0.0
0.68 0.04 0.0
0.7000000000000001 0.04 0.0
0.72 0.04 0.0
0.74 0.04 0.0
0.76 0.04 0.0
0.78 0.04 0.0
0.8 0.04 0.0
0.8200000000000001 0.04 0.0
0.84 0.04 0.0
0.86 0.04 0.0
0.88 0.04 0.0
0.9 0.04 0.0
0.92 0.04 0.0
0.9400000000000001 0.04 0.0
0.96 0.04 0.0
0.98 0.04 0.0
1.0 0.04 0.0
0.0 0.06 0.0
0.02 0.06 0.0
0.04 0.06 0.0
0.06 0.06 0.0
0.08 0.06 0.0
0.1 0.06 0.0
0.12 0.06 0.0
0.14 0.06 0.0
0.16 0.06 0.0
0.18 0.06 0.0
0.2 0.06 0.0
0.22 0.06 0.0
0.24 0.06 0.0
0.26 0.06 0.0
0.28 0.06 0.0
0.3 0.06 0.0
0.32 0.06 0.0
0.34 0.06 0.0
0.36 0.06 0.0
0.38 0.06 0.0
0.4 0.06 0.0
0.42 0.06 0.0
0.44 0.06 0.0
0.46 0.06 0.0
0.48 0.06 0.0
0.5 0.06 0.0
0.52 0.06 0.0
0.54 0.06 0.0
0.56 0.06 0.0
0.58 0.06 0.0
0.6 0.06 0.0
0.62 0.06 0.0
0.64 0.06 0.0
0.66 0.06 0.0
0.68 0.06 0.0
0.7000000000000001 0.06 0.0
0.72 0.06 0.0
0.74 0.06 0.0
0.76 0.06 0.0
0.78 0.06 0.0
0.8 0.06 0.0
0.8200000000000001 0.06 0.0
0.84 0.06 0.0
0.86 0.06 0.0
0.88 0.06 0.0
0.9 0.06 0.0
0.92 0.06 0.0
0.9400000000000001 0.06 0.0
0.96 0.06 0.0
0.98 0.06 0.0
1.0 0.06 0.0
0.0 0.08 0.0
0.02 0.08 0.0
0.04 0.08 0.0
0.06 0.08 0.0
0.08 0.08 0.0
0.1 0.08 0.0
0.12 0.08 0.0
0.14 0.08 0.0
0.16 0.08 0.0
0.18 0.08 0.0
0.2 0.08 0.0
0.22 0.08 0.0
0.24 0.08 0.0
0.26 0.08 0.0
0.28 0.08 0.0
0.3 0.08 0.0
0.32 0.08 0.0
0.34 0.08 0.0
0.36 0.08 0.0
0.38 0.08 0.0
0.4 0.08 0.0
0.42 0.08 0.0
0.44 0.08 0.0
0.46 0.08 0.0
0.48 0.08 0.0
0.5 0.08 0.0
0.52 0.08 0.0
0.54 0.08 0.0
0.56 0.08 0.0
0.58 0.08 0.0
0.6 0.08 0.0
0.62 0.08 0.0
0.64 0.08 0.0
0.66 0.08 0.0
0.68 0.08 0.0
0.7000000000000001 0.08 0.0
0.72 0.08 0.0
0.74 0.08 0.0
0.76 0.08 0.0
0.78 0.08 0.0
0.8 0.08 0.0
0.8200000000000001 0.08 0.0
0.84 0.08 0.0
0.86 0.08 0.0
0.88 0.08 0.0
0.9 0.08 0.0
0.92 0.08 0.0
0.9400000000000001 0.08 0.0
0.96 0.08 0.0
0.98 0.08 0.0
1.0 0.08 0.0
0.0 0.1 0.0
0.02 0.1 0.0
0.04 0.1 0.0
0.06 0.1 0.0
0.08 0.1 0.0
0.1 0.1 0.0
0.12 0.1 0.0
0.14 0.1 0.0
0.16 0.1 0.0
0.18 0.1 0.0
0.2 0.1 0.0
0.22 0.1 0.0
0.24 0.1 0.0
0.26 0.1 0.0
0.28 0.1 0.0
0.3 0.1 0.0
0.32 0.1 0.0
0.34 0.1 0.0
0.36 0.1 0.0
0.38 0.1 0.0
0.4 0.1 0.0
0.42 0.1 0.0
0.44 0.1 0.0
0.46 0.1 0.0
0.48 0.1 0.0
0.5 0.1 0.0
0.52 0.1 0.0
0.54 0.1 0.0
0.56 0.1 0.0
0.58 0.1 0.0
0.6 0.1 0.0
0.62 0.1 0.0
0.64 0.1 0.0
0.66 0.1 0.0
0.68 0.1 0.0
0.7000000000000001 0.1 0.0
0.72 0.1 0.0
0.74 0.1 0.0
0.76 0.1 0.0
0.78 0.1 0.0
0.8 0.1 0.0
0.8200000000000001 0.1 0.0
0.84 0.1 0.0
0.86 0.1 0.0
0.88 0.1 0.0
0.9 0.1 0.0
0.92 0.1 0.0
0.9400000000000001 0.1 0.0
0.96 0.1 0.0
0.98 0.1 0.0
1.0 0.1 0.0
0.0 0.12 0.0
0.02 0.12 0.0
0.04 0.12 0.0
0.06 0.12 0.0
0.08 0.12 0.0
0.1 0.12 0.0
0.12 0.12 0.0
0.14 0.12 0.0
0.16 0.12 0.0
0.18 0.12 0.0
0.2 0.12 0.0
0.22 0.12 0.0
0.24 0.12 0.0
0.26 0.12 0.0
0.28 0.12 0.0
0.3 0.12 0.0
0.32 0.12 0.0
0.34 0.12 0.0
0.36 0.12 0.0
0.38 0.12 0.0
0.4 0.12 0.0
0.42 0.12 0.0
0.44 0.12 0.0
0.46 0.12 0.0
0.48 0.12 0.0
0.5 0.12 0.0
0.52 0.12 0.0
0.54 0.12 0.0
0.56 0.12 0.0
0.58 0.12 0.0
0.6 0.12 0.0
0.62 0.12 0.0
0.64 0.12 0.0
0.66 0.12 0.0
0.68 0.12 0.0
0.7000000000000001 0.12 0.0
0.72 0.12 0.0
0.74 0.12 0.0
0.76 0.12 0.0
0.78 0.12 0.0
0.8 0.12 0.0
0.8200000000000001 0.12 0.0
0.84 0.12 0.0
0.86 0.12 0.0
0.88 0.12 0.0
0.9 0.12 0.0
0.92 0.12 0.0
0.9400000000000001 0.12 0.0
0.96 0.12 0.0
0.98 0.12 0.0
1.0 0.12 0.0
0.0 0.14 0.0
0.02 0.14 0.0
0.04 0.14 0.0
0.06 0.14 0.0
0.08 0.14 0.0
0.1 0.14 0.0
0.12 0.14 0.0
0.14 0.14 0.0
0.16 0.14 0.0
0.18 0.14 0.0
0.2 0.14 0.0
0.22 0.14 0.0
0.24 0.14 0.0
0.26 0.14 0.0
0.28 0.14 0.0
0.3 0.14 0.0
0.32 0.14 0.0
0.34 0.14 0.0
0.36 0.14 0.0
0.38 0.14 0.0
0.4 0.14 0.0
0.42 0.14 0.0
0.44 0.14 0.0
0.46 0.14 0.0
0.48 0.14 0.0
0.5 0.14 0.0
0.52 0.14 0.0
0.54 0.14 0.0
0.56 0.14 0.0
0.58 0.14 0.0
0.6 0.14 0.0
0.62 0.14 0.0
0.64 0.14 0.0
0.66 0.14 0.0
0.68 0.14 0.0
0.7000000000000001 0.14 0.0
0.72 0.14 0.0
0.74 0.14 0.0
0.76 0.14 0.0
0.78 0.14 0.0
0.8 0.14 0.0
0.8200000000000001 0.14 0.0
0.84 0.14 0.0
0.86 0.14 0.0
0.88 0.14 0.0
0.9 0.14 0.0
0.92 0.14 0.0
0.9400000000000001 0.14 0.0
0.96 0.14 0.0
0.98 0.14 0.0
1.0 0.14 0.0
0.0 0.16 0.0
0.02 0.16 0.0
0.04 0.16 0.0
0.06 0.16 0.0
0.08 0.16 0.0
0.1 0.16 0.0
0.12 0.16 0.0
0.14 0.16 0.0
0.16 0.16 0.0
0.18 0.16 0.0
0.2 0.16 0.0
0.22 0.16 0.0
0.24 0.16 0.0
0.26 0.16 0.0
0.28 0.16 0.0
0.3 0.16 0.0
0.32 0.16 0.0
0.34 0.16 0.0
0.36 0.16 0.0
0.38 0.16 0.0
0.4 0.16 0.0
0.42 0.16 0.0
0.44 0.16 0.0
0.46 0.16 0.0
0.48 0.16 0.0
0.5 0.16 0.0
0.52 0.16 0.0
0.54 0.16 0.0
0.56 0.16 0.0
0.58 0.16 0.0
0.6 0.16 0.0
0.62 0.16 0.0
0.64 0.16 0.0
0.66 0.16 0.0
0.68 0.16 0.0
0.7000000000000001 0.16 0.0
0.72 0.16 0.0
0.74 0.16 0.0
0.76 0.16 0.0
0.78 0.16 0.0
0.8 0.16 0.0
0.8200000000000001 0.16 0.0
0.84 0.16 0.0
0.86 0.16 0.0
0.88 0.16 0.0
0.9 0.16 0.0
0.92 0.16 0.0
0.9400000000000001 0.16 0.0
0.96 0.16 0.0
0.98 0.16 0.0
1.0 0.16 0.0
0.0 0.18 0.0
0.02 0.18 0.0
0.04 0.18 0.0
0.06 0.18 0.0
0.08 0.18 0.0
0.1 0.18 0.0
0.12 0.18 0.0
0.14 0.18 0.0
0.16 0.18 0.0
0.18 0.18 0.0
0.2 0.18 0.0
0.22 0.18 0.0
0.24 0.18 0.0
0.26 0.18 0.0
0.28 0.18 0.0
0.3 0.18 0.0
0.32 0.18 0.0
0.34 0.18 0.0
0.36 0.18 0.0
0.38 0.18 0.0
0.4 0.18 0.0
0.42 0.18 0.0
0.44 0.18 0.0
0.46 0.18 0.0
0.48 0.18 0.0
0.5 0.18 0.0
0.52 0.18 0.0
0.54 0.18 0.0
0.56 0.18 0.0
0.58 0.18 0.0
0.6 0.18 0.0
0.62 0.18 0.0
0.64 0.18 0.0
0.66 0.18 0.0
0.68 0.18 0.0
0.7000000000000001 0.18 0.0
0.72 0.18 0.0
0.74 0.18 0.0
0.76 0.18 0.0
0.78 0.18 0.0
0.8 0.18 0.0
0.8200000000000001 0.18 0.0
0.84 0.18 0.0
0.86 0.18 0.0
0.88 0.18 0.0
0.9 0.18 0.0
0.92 0.18 0.0
0.9400000000000001 0.18 0.0
0.96 0.18 0.0
0.98 0.18 0.0
1.0 0.18 0.0
0.0 0.2 0.0
0.02 0.2 0.0
0.04 0.2 0.0
0.06 0.2 0.0
0.08 0.2 0.0
0.1 0.2 0.0
0.12 0.2 0.0
0.14 0.2 0.0
0.16 0.2 0.0
0.18 0.2 0.0
0.2 0.2 0.0
0.22 0.2 0.0
0.24 0.2 0.0
0.26 0.2 0.0
0.28 0.2 0.0
0.3 0.2 0.0
0.32 0.2 0.0
0.34 0.2 0.0
0.36 0.2 0.0
0.38 0.2 0.0
0.4 0.2 0.0
0.42 0.2 0.0
0.44 0.2 0.0
0.46 0.2 0.0
0.48 0.2 0.0
0.5 0.2 0.0
0.52 0.2 0.0
0.54 0.2 0.0
0.56 0.2 0.0
0.58 0.2 0.0
0.6 0.2 0.0
0.62 0.2 0.0
0.64 0.2 0.0
0.66 0.2 0.0
0.68 0.2 0.0
0.7000000000000001 0.2 0.0
0.72 0.2 0.0
0.74 0.2 0.0
0.76 0.2 0.0
0.78 0.2 0.0
0.8 0.2 0.0
0.8200000000000001 0.2 0.0
0.84 0.2 0.0
0.86 0.2 0.0
0.88 0.2 0.0
0.9 0.2 0.0
0.92 0.2 0.0
0.9400000000000001 0.2 0.0
0.96 0.2 0.0
0.98 0.2 0.0
1.0 0.2 0.0
0.0 0.22 0.0
0.02 0.22 0.0
0.04 0.22 0.0
0.06 0.22 0.0
0.08 0.22 0.0
0.1 0.22 0.0
0.12 0.22 0.0
0.14 0.22 0.0
0.16 0.22 0.0
0.18 0.22 0.0
0.2 0.22 0.0
0.22 0.22 0.0
0.24 0.22 0.0
0.26 0.22 0.0
0.28 0.22 0.0
0.3 0.22 0.0
0.32 0.22 0.0
0.34 0.22 0.0
0.36 0.22 0.0
0.38 0.22 0.0
0.4 0.22 0.0
0.42 0.22 0.0
0.44 0.22 0.0
0.46 0.22 0.0
0.48 0.22 0.0
0.5 0.22 0.0
0.52 0.22 0.0
0.54 0.22 0.0
0.56 0.22 0.0
0.58 0.22 0.0
0.6 0.22 0.0
0.62 0.22 0.0
0.64 0.22 0.0
0.66 0.22 0.0
0.68 0.22 0.0
0.7000000000000001 0.22 0.0
0.72 0.22 0.0
0.74 0.22 0.0
0.76 0.22 0.0
0.78 0.22 0.0
0.8 0.22 0.0
0.8200000000000001 0.22 0.0
0.84 0.22 0.0
0.86 0.22 0.0
0.88 0.22 0.0
0.9 0.22 0.0
0.92 0.22 0.0
0.9400000000000001 0.22 0.0
0.96 0.22 0.0
0.98 0.22 0.0
1.0 0.22 0.0
0.0 0.24 0.0
0.02 0.24 0.0
0.04 0.24 0.0
0.06 0.24 0.0
0.08 0.24 0.0
0.1 0.24 0.0
0.12 0.24 0.0
0.14 0.24 0.0
0.16 0.24 0.0
0.18 0.24 0.0
0.2 0.24 0.0
0.22 0.24 0.0
0.24 0.24 0.0
0.26 0.24 0.0
0.28 0.24 0.0
0.3 0.24 0.0
0.32 0.24 0.0
0.34 0.24 0.0
0.36 0.24 0.0
0.38 0.24 0.0
0.4 0.24 0.0
0.42 0.24 0.0
0.44 0.24 0.0
0.46 0.24 0.0
0.48 0.24 0.0
0.5 0.24 0.0
0.52 0.24 0.0
0.54 0.24 0.0
0.56 0.24 0.0
0.58 0.24 0.0
0.6 0.24 0.0
0.62 0.24 0.0
0.64 0.24 0.0
0.66 0.24 0.0
0.68 0.24 0.0
0.7000000000000001 0.24 0.0
0.72 0.24 0.0
0.74 0.24 0.0
0.76 0.24 0.0
0.78 0.24 0.0
0.8 0.24 0.0
0.8200000000000001 0.24 0.0
0.84 0.24 0.0
0.86 0.24 0.0
0.88 0.24 0.0
0.9 0.24 0.0
0.92 0.24 0.0
0.9400000000000001 0.24 0.0
0.96 0.24 0.0
0.98 0.24 0.0
1.0 0.24 0.0
0.0 0.26 0.0
0.02 0.26 0.0
0.04 0.26 0.0
0.06 0.26 0.0
0.08 0.26 0.0
0.1 0.26 0.0
0.12 0.26 0.0
0.14 0.26 0.0
0.16 0.26 0.0
0.18 0.26 0.0
0.2 0.26 0.0
0.22 0.26 0.0
0.24 0.26 0.0
0.26 0.26 0.0
0.28 0.26 0.0
0.3 0.26 0.0
0.32 0.26 0.0
0.34 0.26 0.0
0.36 0.26 0.0
0.38 0.26 0.0
0.4 0.26 0.0
0.42 0.26 0.0
0.44 0.26 0.0
0.46 0.26 0.0
0.48 0.26 0.0
[...]
CELL_DATA 2500
SCALARS u float 1
LOOKUP_TABLE u_cell_table
-5.39274983882861e-05 -4.401997198267574e-05 -5.722502781868721e-05 -0.00015478538949752023 -0.00037321762260844214 -0.0006883256584533966 -0.0010317867342050525 -0.0013332159802712047 -0.001560274678636018 -0.0017335026507473577 -0.0019090252560379104 -0.0021420924038372583 -0.0024545580633524144 -0.002824457810799234 -0.0032008507720468005 -0.0035323351517983306 -0.0037916684145785735 -0.003983909176943206 -0.004136760712835533 -0.00428161785451737 -0.004436858910370945 -0.004601064202628592 -0.004757006039469063 -0.004881830028099078 -0.004957221813661112 -0.004975095167905742 -0.004937671940169485 -0.004853556722806792 -0.0047326724837197 -0.004582386591275684 -0.0044059925628634165 -0.004203257028075764 -0.0039722463662284985 -0.003711308156687165 -0.003420690778596563 -0.0031032309903759165 -0.002764260600237845 -0.0024106829676795298 -0.0020501249244974616 -0.0016903575524881106 -0.0013393539504408785 -0.001005040734666047 -0.0006950425433033114 -0.0004155312125025196 -0.0001688551981724937 5.077612320625786e-05 0.00026977303356027474 0.0005595363843556352 0.0010885030923464794 0.0 -0.00010926434811340193 -0.0001430132513708356 -0.00030060012816461124 -0.0006286087705833688 -0.0011376072795473975 -0.0017931829798396757 -0.002529620262882362 -0.003283459188205903 -0.004022018278007725 -0.004750826640308393 -0.0054981290324796145 -0.006288416144541831 -0.007121934171460117 -0.007971293934784022 -0.008794619891422849 -0.009555099358019525 -0.010234862499991669 -0.010836648346204077 -0.011374865664833408 -0.01186303527446949 -0.012304803741888356 -0.012692041189858004 -0.013009037576491588 -0.013239167517809562 -0.013370304819654365 -0.013397053178566789 -0.013319853015364895 -0.013142437111813218 -0.012869204268280221 -0.012503694198023635 -0.012048303029962053 -0.011505065369904395 -0.010876745148013678 -0.01016803623431609 -0.009386292940237552 -0.008541996326608334 -0.007648427549631786 -0.006721184334088658 -0.005777354777309758 -0.004835298317117304 -0.003914163274907807 -0.0030335948125738833 -0.0022127200371535307 -0.0014689537852367771 -0.0008157451996140104 -0.00026188230755037163 0.00018540868011666673 0.0004995006464446072 0.0005605621065835041 0.0 -0.00015702073826794627 -0.0002798406329050761 -0.0006190867645499456 -0.001203646552423772 -0.0019975567403813766 -0.0029404197213849003 -0.00397423057676014 -0.005066025916734145 -0.006211579297210557 -0.007419671889032175 -0.008689893276031677 -0.009999439291915307 -0.011306558872325505 -0.012566572807260706 -0.013748816161683185 -0.014843920515097586 -0.015858524474966287 -0.01680263588335493 -0.017678169389910247 -0.018474671574271313 -0.019172843552048874 -0.019752048340515364 -0.020196911622861125 -0.020499959128874326 -0.02066022701826933 -0.02067972656468632 -0.020560173633479305 -0.02030134816602643 -0.019901446876642612 -0.019358564244494076 -0.018672569576561684 -0.017846370637785977 -0.01688668734952524 -0.01580402519710262 -0.014612642254230737 -0.013329991007363335 -0.011976425441718576 -0.010574435223680661 -0.00914864901316987 -0.007725398450176869 -0.00633273140117275 -0.004999424069168103 -0.0037545824513478135 -0.002626072656832895 -0.0016403178031200825 -0.0008235959744937353 -0.00020820498498638984 0.00015791668412476083 0.0002140215682212591 0.0 -0.0001287087139421543 -0.0004068733857088072 -0.0009658321725373343 -0.001804110508909624 -0.0028561542707777267 -0.004058071563599551 -0.005374587302622584 -0.006800502148210695 -0.008341032629206421 -0.009985916376239419 -0.011696031325801305 -0.013411340582498705 -0.01507354271500862 -0.01664736252001865 -0.01812694801483288 -0.019525132348275305 -0.02085442473343768 -0.02211214986899289 -0.023277377281997396 -0.024318915924215173 -0.025207537335532146 -0.025924893685606996 -0.026465290704106872 -0.026831361833264657 -0.02702746673423018 -0.02705471215837007 -0.02690938236523062 -0.026584605513568362 -0.026073492551406313 -0.02537225487060956 -0.024481960606720043 -0.023409115880483142 -0.02216507009162589 -0.020765433747648037 -0.019229260699727697 -0.01757886442600314 -0.015839242002855063 -0.01403822626110233 -0.012206172679064774 -0.010376283456621024 -0.008583715741644314 -0.006865328899197548 -0.005258406738257731 -0.003799963844882208 -0.002525945638117456 -0.0014727368074184029 -0.0006779797722680121 -0.00017704720672307095 2.112819934123045e-05 0.0 -5.310191191236214e-05 -0.0005380172163110678 -0.001340527286467025 -0.0024184336822947925 -0.003702976380677362 -0.005150236262639222 -0.006753548777227981 -0.00852021913073035 -0.010439118837734598 -0.012462970540028772 -0.014517311129926921 -0.016528994977873315 -0.018453879347083157 -0.02028549338651647 -0.022041062787736546 -0.023736413167241312 -0.02536649501154213 -0.026901953821618658 -0.028300641423572734 -0.029524476710213108 -0.030551161908242915 -0.03137564725022693 -0.0320032029938046 -0.03243984438016542 -0.032685614272839586 -0.032733033111546364 -0.032570008945643686 -0.032184522396652274 -0.03156882265266462 -0.030721531591610517 -0.029647947262223126 -0.02835889134616617 -0.02686960034991928 -0.0251986706756111 -0.0233680103155973 -0.021402622940047612 -0.01933105958398241 -0.017185205776378512 -0.01500078958046041 -0.012816664184766877 -0.010674577618540876 -0.008617809161173672 -0.006690726055047247 -0.004936746208679425 -0.0033981712558453403 -0.0021152622651985707 -0.0011244815140908884 -0.00045083336828767573 -9.159296238571202e-05 0.0 -3.4817029434060145e-05 -0.0007329212796737773 -0.0017641036133500864 -0.0030496435339353177 -0.004542768142508457 -0.006230666652963635 -0.008123400244566967 -0.010216277585694152 -0.012463443040296396 -0.014782974479039711 -0.017088495657689884 -0.019323824216489413 -0.021476814523757617 -0.023565188754053324 -0.02560684885879344 -0.027595465601863062 -0.029495371506195765 -0.03125529580930614 -0.032829166654527606 -0.034190551880786714 -0.03533410885766269 -0.036266459334420964 -0.036994023135335355 -0.03751486420866013 -0.037817339493087694 -0.0378842452372408 -0.03769884750168782 -0.037249815733000936 -0.03653335533438762 -0.03555303948304901 -0.03431811925713175 -0.032842010485721614 -0.031141160093882944 -0.02923517054455401 -0.02714702830829529 -0.024903960816117385 -0.02253744670895693 -0.020083731270512533 -0.017583251760679732 -0.01508050219404122 -0.012622550848005797 -0.010258618747411326 -0.008038223588546542 -0.006010030111195773 -0.004220117421629383 -0.002711328140394162 -0.0015195865810760441 -0.0006689713772976837 -0.0001648781328085301 0.0 -0.00016627820509870515 -0.001022685092259753 -0.002220928877426319 -0.0036671175511656428 -0.005347211658285633 -0.007272576955930844 -0.009445869419697939 -0.011828400599643511 -0.014337595258584981 -0.0168777334162881 -0.01938014882573629 -0.021823529568221416 -0.02422199592409098 -0.026592684644243348 -0.02892698017860024 -0.03118335316001549 -0.03330263032173047 -0.03523211582975472 -0.036942272924392554 -0.03842782120008622 -0.03969629824618462 -0.04075348373521156 -0.04159424326732756 -0.04220187618695677 -0.04255381665550006 -0.0426289947697117 -0.04241317604763291 -0.04190067061000437 -0.04109333071210342 -0.03999821274257994 -0.038625762131248464 -0.03698883055854583 -0.0351031155570937 -0.03298790108652015 -0.03066733730820403 -0.028170821888855745 -0.02553350207028383 -0.022795715608069145 -0.020002904171680543 -0.017204239295084446 -0.014452042135611123 -0.011800156246574182 -0.00930302447585431 -0.007013225999836602 -0.0049808031539942225 -0.003251209165851104 -0.0018632289757624714 -0.0008456995277798583 -0.00021760929798866283 0.0 -0.00043308060535083545 -0.0013511816149024752 -0.0026332209376887226 -0.004201658965247424 -0.006063179037795921 -0.008228055593208161 -0.010665648001743293 -0.013295303589547607 -0.016013951890875046 -0.018740040906834156 -0.021440747680973607 -0.024123927738102707 -0.02680413418915789 -0.029469591267276114 -0.0320725488076912 -0.03454585760532759 -0.03683051862285367 -0.038894676353092766 -0.04073409025977836 -0.04235788445909741 -0.04377121024831409 -0.04496514303022979 -0.045917137548732355 -0.04659876097035241 -0.046984630332259594 -0.047058052826766186 -0.046811958991335625 -0.04624668574572675 -0.04536678021637928 -0.04417889262934581 -0.0426911247792361 -0.04091396332383153 -0.03886162635981864 -0.03655372088698866 -0.03401603529394581 -0.03128110239948644 -0.028387685195181003 -0.025380554097327326 -0.022309367714929966 -0.019228052748762173 -0.016193275825383394 -0.013263752949464455 -0.01049812777591457 -0.007953620396690824 -0.005684244573925081 -0.003739900503452025 -0.0021640329432901792 -0.0009931196896487884 -0.00025850117736687776 0.0 -0.0006923221526743989 -0.0015920905963675387 -0.0029064952323961273 -0.004597960399490609 -0.006663711990410447 -0.0090793377545443 -0.011765846737554176 -0.014611706170231184 -0.017519989861555715 -0.020443184208735338 -0.023380679900818234 -0.026344127299670426 -0.029319463822798868 -0.03225338095484528 -0.03507047825669807 -0.037704670641660575 -0.040121404875677225 -0.04231795452103893 -0.04430604235162152 -0.04609107231958996 -0.047660639267969776 -0.04898613223041864 -0.05003286905766015 -0.05077097114382549 -0.0511814171795944 -0.05125604266568362 -0.05099383180181289 -0.05039665149766571 -0.049466795962734296 -0.0482067620379401 -0.046620812167353566 -0.04471702954635985 -0.04250930986061411 -0.04001850243429971 -0.0372730193525245 -0.03430852440531453 -0.031167536415201452 -0.027898537559090376 -0.024555405192705406 -0.021196209168279696 -0.017882425811195916 -0.014677383845533055 -0.011644885621935362 -0.008847017679548066 -0.006343223614442181 -0.004188602139359669 -0.002432925948194112 -0.001120298473408846 -0.0002921035025065855 0.0 -0.0007661476618447883 -0.001644132590610525 -0.0030159862295861244 -0.004879911243198344 -0.007191825381559928 -0.009868747263336097 -0.012788608649343135 -0.015835216087168175 -0.018941618610237222 -0.022095662192412942 -0.02530623922979149 -0.028559572757802913 -0.03179938989588514 -0.03494275081126323 -0.03791529339700778 -0.0406780997094809 -0.04322920420157567 -0.04558341927373199 -0.04774751696715675 -0.04970654877926126 -0.05142621514747144 -0.05286552443442952 -0.05398993872135046 -0.054778075672073885 -0.05522077849842413 -0.05531576728781871 -0.055062140644380746 -0.0544575005287564 -0.053498184627484076 -0.05218153098724791 -0.05050870437202307 -0.04848699426142138 -0.04613122234634952 -0.043464275006836126 -0.04051707764155025 -0.03732813981632061 -0.03394299261875129 -0.030413574849929074 -0.026797614715205885 -0.023157777913990613 -0.019560557152398614 -0.016074907077616447 -0.012770368302180346 -0.009715262368353619 -0.006975145634282578 -0.004611590281583618 -0.0026809066948525035 -0.0012345277020458525 -0.00032115964012328793 0.0 -0.000592852313518149 -0.0015312909702223316 -0.0030541710011429773 -0.005158202376670961 -0.007743111045272637 -0.010669246858700014 -0.013797549174859251 -0.01703664902336992 -0.020358481361464127 -0.02376839086530102 -0.027255867885245234 -0.03076577150376355 -0.034209729006875876 -0.03750414150054535 -0.04060304994832424 -0.043503020139799696 -0.046221358480154344 -0.04876696878924378 -0.05112349457963129 -0.05325169825893404 -0.055104502580871954 -0.05664267005736113 -0.057842444561750896 -0.05869378784450833 -0.05919331313423447 -0.05933742386899663 -0.059118946858065714 -0.05852782275147319 -0.057554103310215446 -0.05619156475510636 -0.05444026773777626 -0.05230816040552759 -0.04981139084901085 -0.04697452928476226 -0.04383010911912479 -0.04041865705626302 -0.036788037170747995 -0.03299351528008173 -0.029096898792586947 -0.025166124180357328 -0.021273583949601826 -0.017494907852836226 -0.013906584965057325 -0.010584244356755944 -0.0076006620359849305 -0.005024513919489992 -0.0029189889499410637 -0.0013419928957982832 -0.0003477175206949947 0.0 -0.00030510727310507175 -0.0014113106304144592 -0.0031798332594960787 -0.005554060766057104 -0.008387816025800722 -0.011515281968494731 -0.014816127208226011 -0.018241405417856536 -0.02179027279115004 -0.025457110301128544 -0.029192051766664576 -0.03290423708601156 -0.03650025037095573 -0.039923693279665974 -0.04316600499309492 -0.04624510722113339 -0.04917217951795854 -0.05193056515287782 -0.054477040033618286 -0.05675882400825125 -0.05873201236125146 -0.060370534498416416 -0.06166373208889279 -0.06260751524984191 -0.0631959793346683 -0.06341744160786758 -0.06325556853423997 -0.06269312827327868 -0.0617163886752573 -0.06031787524327658 -0.058498085782491015 -0.05626545569171021 -0.05363675753101179 -0.05063656554214375 -0.04729808629549125 -0.0436626116772833 -0.03978046829196208 -0.03571003219272041 -0.03151834340978789 -0.027279087192116906 -0.02307216669040779 -0.018980707619208677 -0.015089853574989551 -0.011483417056159663 -0.00824274831237546 -0.00544415192266645 -0.003158124165382034 -0.001448415584755012 -0.0003734571436546601 0.0 -0.00014543465991588718 -0.0014643430823384996 -0.0034941825866616335 -0.00609347381592144 -0.009098393145386435 -0.012360895390664864 -0.015805627664347212 -0.019420459777686867 -0.0232033334736774 -0.027112031809201152 -0.031055885319199655 -0.034931241437771 -0.038667369030929655 -0.042245689353358505 -0.045681608980798476 -0.04898810294134841 -0.05214935477706335 -0.055119382101373605 -0.0578402387940242 -0.06026336407715669 -0.06236040164832744 -0.06412045404812593 -0.065539434170751 -0.06660993005048708 -0.06731645232600442 -0.06763692730133897 -0.06754722848377265 -0.06702637188525495 -0.06605941550871701 -0.06463918011305096 -0.06276573036115332 -0.06044688361348637 -0.057697485700829255 -0.0545411096945271 -0.051009697290791155 -0.0471457493543165 -0.04300115612818534 -0.03863905190798651 -0.034131419017088896 -0.0295599305871148 -0.025012049302628382 -0.02058092051299439 -0.01636069331667239 -0.01244576489067992 -0.008926443995247436 -0.005888414035062104 -0.0034093909192366182 -0.0015593445510749965 -0.0003999162291271172 0.0 -0.00026870237076967484 -0.0017422693536330671 -0.003945955461777995 -0.00666907193509743 -0.009759269785064308 -0.013117483560743326 -0.016713229907419795 -0.020542421269801655 -0.02456953874736772 -0.02870545491964692 -0.03283585408007769 -0.03687168905554643 -0.040778647793797106 -0.04456539730212144 -0.048245647017506894 -0.051805731645001726 -0.055198651673885143 -0.05836215421267968 -0.06124298645076633 -0.06381031905162232 -0.06605330215462149 -0.06796871998539274 -0.06954882056805901 -0.07077545221982971 -0.07162175548355455 -0.07205748205946999 -0.07205503127077777 -0.0715924750376171 -0.07065517757458692 -0.06923463175091539 -0.06732897570567611 -0.06494196753974818 -0.062085557512537186 -0.058779635406557285 -0.05505573916925894 -0.05095575876550576 -0.04653532435769966 -0.041860826061060924 -0.03701211279924677 -0.03207760164585744 -0.027155824194186606 -0.0223492527124344 -0.017764841470272456 -0.013507352140270691 -0.009679478756133899 -0.006376149926322017 -0.0036845427924663246 -0.0016802433488983706 -0.00042864502711129873 0.0 -0.00059795147509364 -0.002111975627143034 -0.004361157343617192 -0.007122050073084573 -0.010268349873664265 -0.013748501745097525 -0.017548170371666314 -0.0216335389246354 -0.025916500909675032 -0.0302718952368416 -0.03458910873599377 -0.03881231711814542 -0.042938415225886734 -0.046980123080300175 -0.05092732418719416 -0.05473436919401453 -0.05833607563027947 -0.06167446536440914 -0.06471564636440179 -0.06744868447209343 -0.06987195992552969 -0.07197871276519852 -0.0737496115489243 -0.07515433272842523 -0.07615762306471571 -0.07672624942253338 -0.07683219882453725 -0.07645411707579787 -0.07557533239613497 -0.07418421866687476 -0.07227272576433147 -0.06983979952833172 -0.06689108223669779 -0.0634442184104892 -0.059527388526786004 -0.05518464868689643 -0.0504721694979065 -0.04546327914648215 -0.04024251037726352 -0.0349097129896777 -0.02957201494862935 -0.02434676592937453 -0.019352203204902378 -0.014709061167178274 -0.010531557820299062 -0.0069284745683192315 -0.003995715766021667 -0.001817163946566309 -0.00046113356366427776 0.0 -0.0008763274400046619 -0.0023608784550281786 -0.004590077120330336 -0.007385844405892472 -0.01064474006037374 -0.014330799673319641 -0.018404930434536504 -0.022778160827375632 -0.027315272340190204 -0.031882840063628154 -0.036398842965080294 -0.040843009675103764 -0.04522441748125748 -0.049537477488597575 -0.05374059195279633 -0.0577675409364842 -0.06155563957355175 -0.06506681116196199 -0.06828916022748242 -0.07122286533138918 -0.07386336281266731 -0.07619179216075145 -0.07817596465561222 -0.07977701922915968 -0.08095736540831772 -0.08168419035840434 -0.08193069485067166 -0.08167315895028317 -0.08089093557868479 -0.07956434321773137 -0.07767883706320262 -0.07522449799714195 -0.07220288796887621 -0.06862516644276898 -0.06451966874958752 -0.059927260629408396 -0.05490922732621725 -0.049539998063569034 -0.04391489770154037 -0.03814002910658812 -0.032338793738617394 -0.026639556641463585 -0.021180218816271308 -0.016094922989875297 -0.011517119245127563 -0.007567746878580245 -0.004357152852180864 -0.001976251779854852 -0.0004992402448960572 0.0 -0.000891477504125695 -0.002384433330472743 -0.004644971133239275 -0.007559023265268021 -0.011034438040751063 -0.01501146220156058 -0.019397700962714412 -0.024050755169561382 -0.0288164958733281 -0.03358448802091108 -0.03831216459461816 -0.0430010012463732 -0.04764957138856403 -0.052222556619158735 -0.056654754393798495 -0.0608788175031483 -0.06485080414732913 -0.06855602818940444 -0.07199581789393888 -0.07516858793947732 -0.07805759128107286 -0.08063056829071381 -0.0828466711450936 -0.08466544512165208 -0.08605086341087818 -0.0869724331648298 -0.08740121979127832 -0.08730922051560555 -0.08666638872395852 -0.08544536338880301 -0.08362056485462022 -0.08117647318458697 -0.078104987602159 -0.07441524183033044 -0.07012786066338936 -0.06528622792110603 -0.059947569689748334 -0.05419526967619935 -0.04812650095744516 -0.0418638371002945 -0.03553938403346762 -0.02930428023440377 -0.023310400876539596 -0.01771702099478268 -0.012672899964751492 -0.008321038864547194 -0.004783653537173369 -0.002165310062903672 -0.0005446954346379119 0.0 -0.0006747470748670011 -0.0022827383242932293 -0.004694505820758714 -0.007829111110534135 -0.011595452610140812 -0.015888126811158816 -0.02056079811017488 -0.02544467276426887 -0.03040218284603153 -0.03536424323451019 -0.04031913618203956 -0.04526678511677156 -0.050178739260320654 -0.05499237433220113 -0.05963565863138285 -0.06405668251290851 -0.06823521380472311 -0.07217206517439566 -0.07586876072647251 -0.07931214666389935 -0.08247182312864358 -0.08530676683866814 -0.08777529258668744 -0.08983991200105891 -0.0914685151933123 -0.09262938283438762 -0.09328968980871374 -0.09341141676149953 -0.0929563565422862 -0.09188462820293299 -0.0901641635405879 -0.0877669820511118 -0.08468101267310722 -0.08090282447834335 -0.07645255406673951 -0.07136307154399514 -0.06569759812619085 -0.05953471398780204 -0.05298668236760351 -0.04617965756232051 -0.039270204343592616 -0.03242149753019644 -0.025816089664624856 -0.01963042308176425 -0.014044004161879 -0.009216582275266661 -0.005294220125400552 -0.0023919961166839723 -0.0006000881877469917 0.0 -0.00047731129336006563 -0.0022681680050245646 -0.004911977261331347 -0.008309592627374643 -0.012361952263578582 -0.01692193582074445 -0.02181295112639724 -0.02687463008738128 -0.032008366580109984 -0.03718183608940467 -0.042390121637563054 -0.04760943413299529 -0.05278007389678813 -0.057825186623356936 -0.0626827274230235 -0.0673235667492552 -0.07174538454619289 -0.07595215333817763 -0.07993546647757863 -0.08366876861404514 -0.0871128229667431 -0.0902264003632143 -0.09297228404878434 -0.09531889181996371 -0.09723447778702443 -0.09868456864081894 -0.09962653064232624 -0.10001450099579694 -0.09979715907045196 -0.09892813131567538 -0.097360916594991 -0.09506232949150743 -0.09200319052846237 -0.08817674330901237 -0.08358550891194548