# vtk DataFile Version 3.0
vtk output
ASCII
DATASET STRUCTURED_GRID
DIMENSIONS 51 51 1
POINTS 2601 float
0.0 0.0 0.0
0.02 0.0 0.0
0.04 0.0 0.0
0.06 0.0 0.0
0.08 0.0 0.0
0.1 0.0 0.0
0.12 0.0 0.0
0.14 0.0 0.0
0.16 0.0 0.0
0.18 0.0 0.0
0.2 0.0 0.0
0.22 0.0 0.0
0.24 0.0 0.0
0.26 0.0 0.0
0.28 0.0 0.0
0.3 0.0 0.0
0.32 0.0 0.0
0.34 0.0 0.0
0.36 0.0 0.0
0.38 0.0 0.0
0.4 0.0 0.0
0.42 0.0 0.0
0.44 0.0 0.0
0.46 0.0 0.0
0.48 0.0 0.0
0.5 0.0 0.0
0.52 0.0 0.0
0.54 0.0 0.0
0.56 0.0 0.0
0.58 0.0 0.0
0.6 0.0 0.0
0.62 0.0 0.0
0.64 0.0 0.0
0.66 0.0 0.0
0.68 0.0 0.0
0.7000000000000001 0.0 0.0
0.72 0.0 0.0
0.74 0.0 0.0
0.76 0.0 0.0
0.78 0.0 0.0
0.8 0.0 0.0
0.8200000000000001 0.0 0.0
0.84 0.0 0.0
0.86 0.0 0.0
0.88 0.0 0.0
0.9 0.0 0.0
0.92 0.0 0.0
0.9400000000000001 0.0 0.0
0.96 0.0 0.0
0.98 0.0 0.0
1.0 0.0 0.0
0.0 0.02 0.0
0.02 0.02 0.0
0.04 0.02 0.0
0.06 0.02 0.0
0.08 0.02 0.0
0.1 0.02 0.0
0.12 0.02 0.0
0.14 0.02 0.0
0.16 0.02 0.0
0.18 0.02 0.0
0.2 0.02 0.0
0.22 0.02 0.0
0.24 0.02 0.0
0.26 0.02 0.0
0.28 0.02 0.0
0.3 0.02 0.0
0.32 0.02 0.0
0.34 0.02 0.0
0.36 0.02 0.0
0.38 0.02 0.0
0.4 0.02 0.0
0.42 0.02 0.0
0.44 0.02 0.0
0.46 0.02 0.0
0.48 0.02 0.0
0.5 0.02 0.0
0.52 0.02 0.0
0.54 0.02 0.0
0.56 0.02 0.0
0.58 0.02 0.0
0.6 0.02 0.0
0.62 0.02 0.0
0.64 0.02 0.0
0.66 0.02 0.0
0.68 0.02 0.0
0.7000000000000001 0.02 0.0
0.72 0.02 0.0
0.74 0.02 0.0
0.76 0.02 0.0
0.78 0.02 0.0
0.8 0.02 0.0
0.8200000000000001 0.02 0.0
0.84 0.02 0.0
0.86 0.02 0.0
0.88 0.02 0.0
0.9 0.02 0.0
0.92 0.02 0.0
0.9400000000000001 0.02 0.0
0.96 0.02 0.0
0.98 0.02 0.0
1.0 0.02 0.0
0.0 0.04 0.0
0.02 0.04 0.0
0.04 0.04 0.0
0.06 0.04 0.0
0.08 0.04 0.0
0.1 0.04 0.0
0.12 0.04 0.0
0.14 0.04 0.0
0.16 0.04 0.0
0.18 0.04 0.0
0.2 0.04 0.0
0.22 0.04 0.0
0.24 0.04 0.0
0.26 0.04 0.0
0.28 0.04 0.0
0.3 0.04 0.0
0.32 0.04 0.0
0.34 0.04 0.0
0.36 0.04 0.0
0.38 0.04 0.0
0.4 0.04 0.0
0.42 0.04 0.0
0.44 0.04 0.0
0.46 0.04 0.0
0.48 0.04 0.0
0.5 0.04 0.0
0.52 0.04 0.0
0.54 0.04 0.0
0.56 0.04 0.0
0.58 0.04 0.0
0.6 0.04 0.0
0.62 0.04 0.0
0.64 0.04 0.0
0.66 0.04 0.0
0.68 0.04 0.0
0.7000000000000001 0.04 0.0
0.72 0.04 0.0
0.74 0.04 0.0
0.76 0.04 0.0
0.78 0.04 0.0
0.8 0.04 0.0
0.8200000000000001 0.04 0.0
0.84 0.04 0.0
0.86 0.04 0.0
0.88 0.04 0.0
0.9 0.04 0.0
0.92 0.04 0.0
0.9400000000000001 0.04 0.0
0.96 0.04 0.0
0.98 0.04 0.0
1.0 0.04 0.0
0.0 0.06 0.0
0.02 0.06 0.0
0.04 0.06 0.0
0.06 0.06 0.0
0.08 0.06 0.0
0.1 0.06 0.0
0.12 0.06 0.0
0.14 0.06 0.0
0.16 0.06 0.0
0.18 0.06 0.0
0.2 0.06 0.0
0.22 0.06 0.0
0.24 0.06 0.0
0.26 0.06 0.0
0.28 0.06 0.0
0.3 0.06 0.0
0.32 0.06 0.0
0.34 0.06 0.0
0.36 0.06 0.0
0.38 0.06 0.0
0.4 0.06 0.0
0.42 0.06 0.0
0.44 0.06 0.0
0.46 0.06 0.0
0.48 0.06 0.0
0.5 0.06 0.0
0.52 0.06 0.0
0.54 0.06 0.0
0.56 0.06 0.0
0.58 0.06 0.0
0.6 0.06 0.0
0.62 0.06 0.0
0.64 0.06 0.0
0.66 0.06 0.0
0.68 0.06 0.0
0.7000000000000001 0.06 0.0
0.72 0.06 0.0
0.74 0.06 0.0
0.76 0.06 0.0
0.78 0.06 0.0
0.8 0.06 0.0
0.8200000000000001 0.06 0.0
0.84 0.06 0.0
0.86 0.06 0.0
0.88 0.06 0.0
0.9 0.06 0.0
0.92 0.06 0.0
0.9400000000000001 0.06 0.0
0.96 0.06 0.0
0.98 0.06 0.0
1.0 0.06 0.0
0.0 0.08 0.0
0.02 0.08 0.0
0.04 0.08 0.0
0.06 0.08 0.0
0.08 0.08 0.0
0.1 0.08 0.0
0.12 0.08 0.0
0.14 0.08 0.0
0.16 0.08 0.0
0.18 0.08 0.0
0.2 0.08 0.0
0.22 0.08 0.0
0.24 0.08 0.0
0.26 0.08 0.0
0.28 0.08 0.0
0.3 0.08 0.0
0.32 0.08 0.0
0.34 0.08 0.0
0.36 0.08 0.0
0.38 0.08 0.0
0.4 0.08 0.0
0.42 0.08 0.0
0.44 0.08 0.0
0.46 0.08 0.0
0.48 0.08 0.0
0.5 0.08 0.0
0.52 0.08 0.0
0.54 0.08 0.0
0.56 0.08 0.0
0.58 0.08 0.0
0.6 0.08 0.0
0.62 0.08 0.0
0.64 0.08 0.0
0.66 0.08 0.0
0.68 0.08 0.0
0.7000000000000001 0.08 0.0
0.72 0.08 0.0
0.74 0.08 0.0
0.76 0.08 0.0
0.78 0.08 0.0
0.8 0.08 0.0
0.8200000000000001 0.08 0.0
0.84 0.08 0.0
0.86 0.08 0.0
0.88 0.08 0.0
0.9 0.08 0.0
0.92 0.08 0.0
0.9400000000000001 0.08 0.0
0.96 0.08 0.0
0.98 0.08 0.0
1.0 0.08 0.0
0.0 0.1 0.0
0.02 0.1 0.0
0.04 0.1 0.0
0.06 0.1 0.0
0.08 0.1 0.0
0.1 0.1 0.0
0.12 0.1 0.0
0.14 0.1 0.0
0.16 0.1 0.0
0.18 0.1 0.0
0.2 0.1 0.0
0.22 0.1 0.0
0.24 0.1 0.0
0.26 0.1 0.0
0.28 0.1 0.0
0.3 0.1 0.0
0.32 0.1 0.0
0.34 0.1 0.0
0.36 0.1 0.0
0.38 0.1 0.0
0.4 0.1 0.0
0.42 0.1 0.0
0.44 0.1 0.0
0.46 0.1 0.0
0.48 0.1 0.0
0.5 0.1 0.0
0.52 0.1 0.0
0.54 0.1 0.0
0.56 0.1 0.0
0.58 0.1 0.0
0.6 0.1 0.0
0.62 0.1 0.0
0.64 0.1 0.0
0.66 0.1 0.0
0.68 0.1 0.0
0.7000000000000001 0.1 0.0
0.72 0.1 0.0
0.74 0.1 0.0
0.76 0.1 0.0
0.78 0.1 0.0
0.8 0.1 0.0
0.8200000000000001 0.1 0.0
0.84 0.1 0.0
0.86 0.1 0.0
0.88 0.1 0.0
0.9 0.1 0.0
0.92 0.1 0.0
0.9400000000000001 0.1 0.0
0.96 0.1 0.0
0.98 0.1 0.0
1.0 0.1 0.0
0.0 0.12 0.0
0.02 0.12 0.0
0.04 0.12 0.0
0.06 0.12 0.0
0.08 0.12 0.0
0.1 0.12 0.0
0.12 0.12 0.0
0.14 0.12 0.0
0.16 0.12 0.0
0.18 0.12 0.0
0.2 0.12 0.0
0.22 0.12 0.0
0.24 0.12 0.0
0.26 0.12 0.0
0.28 0.12 0.0
0.3 0.12 0.0
0.32 0.12 0.0
0.34 0.12 0.0
0.36 0.12 0.0
0.38 0.12 0.0
0.4 0.12 0.0
0.42 0.12 0.0
0.44 0.12 0.0
0.46 0.12 0.0
0.48 0.12 0.0
0.5 0.12 0.0
0.52 0.12 0.0
0.54 0.12 0.0
0.56 0.12 0.0
0.58 0.12 0.0
0.6 0.12 0.0
0.62 0.12 0.0
0.64 0.12 0.0
0.66 0.12 0.0
0.68 0.12 0.0
0.7000000000000001 0.12 0.0
0.72 0.12 0.0
0.74 0.12 0.0
0.76 0.12 0.0
0.78 0.12 0.0
0.8 0.12 0.0
0.8200000000000001 0.12 0.0
0.84 0.12 0.0
0.86 0.12 0.0
0.88 0.12 0.0
0.9 0.12 0.0
0.92 0.12 0.0
0.9400000000000001 0.12 0.0
0.96 0.12 0.0
0.98 0.12 0.0
1.0 0.12 0.0
0.0 0.14 0.0
0.02 0.14 0.0
0.04 0.14 0.0
0.06 0.14 0.0
0.08 0.14 0.0
0.1 0.14 0.0
0.12 0.14 0.0
0.14 0.14 0.0
0.16 0.14 0.0
0.18 0.14 0.0
0.2 0.14 0.0
0.22 0.14 0.0
0.24 0.14 0.0
0.26 0.14 0.0
0.28 0.14 0.0
0.3 0.14 0.0
0.32 0.14 0.0
0.34 0.14 0.0
0.36 0.14 0.0
0.38 0.14 0.0
0.4 0.14 0.0
0.42 0.14 0.0
0.44 0.14 0.0
0.46 0.14 0.0
0.48 0.14 0.0
0.5 0.14 0.0
0.52 0.14 0.0
0.54 0.14 0.0
0.56 0.14 0.0
0.58 0.14 0.0
0.6 0.14 0.0
0.62 0.14 0.0
0.64 0.14 0.0
0.66 0.14 0.0
0.68 0.14 0.0
0.7000000000000001 0.14 0.0
0.72 0.14 0.0
0.74 0.14 0.0
0.76 0.14 0.0
0.78 0.14 0.0
0.8 0.14 0.0
0.8200000000000001 0.14 0.0
0.84 0.14 0.0
0.86 0.14 0.0
0.88 0.14 0.0
0.9 0.14 0.0
0.92 0.14 0.0
0.9400000000000001 0.14 0.0
0.96 0.14 0.0
0.98 0.14 0.0
1.0 0.14 0.0
0.0 0.16 0.0
0.02 0.16 0.0
0.04 0.16 0.0
0.06 0.16 0.0
0.08 0.16 0.0
0.1 0.16 0.0
0.12 0.16 0.0
0.14 0.16 0.0
0.16 0.16 0.0
0.18 0.16 0.0
0.2 0.16 0.0
0.22 0.16 0.0
0.24 0.16 0.0
0.26 0.16 0.0
0.28 0.16 0.0
0.3 0.16 0.0
0.32 0.16 0.0
0.34 0.16 0.0
0.36 0.16 0.0
0.38 0.16 0.0
0.4 0.16 0.0
0.42 0.16 0.0
0.44 0.16 0.0
0.46 0.16 0.0
0.48 0.16 0.0
0.5 0.16 0.0
0.52 0.16 0.0
0.54 0.16 0.0
0.56 0.16 0.0
0.58 0.16 0.0
0.6 0.16 0.0
0.62 0.16 0.0
0.64 0.16 0.0
0.66 0.16 0.0
0.68 0.16 0.0
0.7000000000000001 0.16 0.0
0.72 0.16 0.0
0.74 0.16 0.0
0.76 0.16 0.0
0.78 0.16 0.0
0.8 0.16 0.0
0.8200000000000001 0.16 0.0
0.84 0.16 0.0
0.86 0.16 0.0
0.88 0.16 0.0
0.9 0.16 0.0
0.92 0.16 0.0
0.9400000000000001 0.16 0.0
0.96 0.16 0.0
0.98 0.16 0.0
1.0 0.16 0.0
0.0 0.18 0.0
0.02 0.18 0.0
0.04 0.18 0.0
0.06 0.18 0.0
0.08 0.18 0.0
0.1 0.18 0.0
0.12 0.18 0.0
0.14 0.18 0.0
0.16 0.18 0.0
0.18 0.18 0.0
0.2 0.18 0.0
0.22 0.18 0.0
0.24 0.18 0.0
0.26 0.18 0.0
0.28 0.18 0.0
0.3 0.18 0.0
0.32 0.18 0.0
0.34 0.18 0.0
0.36 0.18 0.0
0.38 0.18 0.0
0.4 0.18 0.0
0.42 0.18 0.0
0.44 0.18 0.0
0.46 0.18 0.0
0.48 0.18 0.0
0.5 0.18 0.0
0.52 0.18 0.0
0.54 0.18 0.0
0.56 0.18 0.0
0.58 0.18 0.0
0.6 0.18 0.0
0.62 0.18 0.0
0.64 0.18 0.0
0.66 0.18 0.0
0.68 0.18 0.0
0.7000000000000001 0.18 0.0
0.72 0.18 0.0
0.74 0.18 0.0
0.76 0.18 0.0
0.78 0.18 0.0
0.8 0.18 0.0
0.8200000000000001 0.18 0.0
0.84 0.18 0.0
0.86 0.18 0.0
0.88 0.18 0.0
0.9 0.18 0.0
0.92 0.18 0.0
0.9400000000000001 0.18 0.0
0.96 0.18 0.0
0.98 0.18 0.0
1.0 0.18 0.0
0.0 0.2 0.0
0.02 0.2 0.0
0.04 0.2 0.0
0.06 0.2 0.0
0.08 0.2 0.0
0.1 0.2 0.0
0.12 0.2 0.0
0.14 0.2 0.0
0.16 0.2 0.0
0.18 0.2 0.0
0.2 0.2 0.0
0.22 0.2 0.0
0.24 0.2 0.0
0.26 0.2 0.0
0.28 0.2 0.0
0.3 0.2 0.0
0.32 0.2 0.0
0.34 0.2 0.0
0.36 0.2 0.0
0.38 0.2 0.0
0.4 0.2 0.0
0.42 0.2 0.0
0.44 0.2 0.0
0.46 0.2 0.0
0.48 0.2 0.0
0.5 0.2 0.0
0.52 0.2 0.0
0.54 0.2 0.0
0.56 0.2 0.0
0.58 0.2 0.0
0.6 0.2 0.0
0.62 0.2 0.0
0.64 0.2 0.0
0.66 0.2 0.0
0.68 0.2 0.0
0.7000000000000001 0.2 0.0
0.72 0.2 0.0
0.74 0.2 0.0
0.76 0.2 0.0
0.78 0.2 0.0
0.8 0.2 0.0
0.8200000000000001 0.2 0.0
0.84 0.2 0.0
0.86 0.2 0.0
0.88 0.2 0.0
0.9 0.2 0.0
0.92 0.2 0.0
0.9400000000000001 0.2 0.0
0.96 0.2 0.0
0.98 0.2 0.0
1.0 0.2 0.0
0.0 0.22 0.0
0.02 0.22 0.0
0.04 0.22 0.0
0.06 0.22 0.0
0.08 0.22 0.0
0.1 0.22 0.0
0.12 0.22 0.0
0.14 0.22 0.0
0.16 0.22 0.0
0.18 0.22 0.0
0.2 0.22 0.0
0.22 0.22 0.0
0.24 0.22 0.0
0.26 0.22 0.0
0.28 0.22 0.0
0.3 0.22 0.0
0.32 0.22 0.0
0.34 0.22 0.0
0.36 0.22 0.0
0.38 0.22 0.0
0.4 0.22 0.0
0.42 0.22 0.0
0.44 0.22 0.0
0.46 0.22 0.0
0.48 0.22 0.0
0.5 0.22 0.0
0.52 0.22 0.0
0.54 0.22 0.0
0.56 0.22 0.0
0.58 0.22 0.0
0.6 0.22 0.0
0.62 0.22 0.0
0.64 0.22 0.0
0.66 0.22 0.0
0.68 0.22 0.0
0.7000000000000001 0.22 0.0
0.72 0.22 0.0
0.74 0.22 0.0
0.76 0.22 0.0
0.78 0.22 0.0
0.8 0.22 0.0
0.8200000000000001 0.22 0.0
0.84 0.22 0.0
0.86 0.22 0.0
0.88 0.22 0.0
0.9 0.22 0.0
0.92 0.22 0.0
0.9400000000000001 0.22 0.0
0.96 0.22 0.0
0.98 0.22 0.0
1.0 0.22 0.0
0.0 0.24 0.0
0.02 0.24 0.0
0.04 0.24 0.0
0.06 0.24 0.0
0.08 0.24 0.0
0.1 0.24 0.0
0.12 0.24 0.0
0.14 0.24 0.0
0.16 0.24 0.0
0.18 0.24 0.0
0.2 0.24 0.0
0.22 0.24 0.0
0.24 0.24 0.0
0.26 0.24 0.0
0.28 0.24 0.0
0.3 0.24 0.0
0.32 0.24 0.0
0.34 0.24 0.0
0.36 0.24 0.0
0.38 0.24 0.0
0.4 0.24 0.0
0.42 0.24 0.0
0.44 0.24 0.0
0.46 0.24 0.0
0.48 0.24 0.0
0.5 0.24 0.0
0.52 0.24 0.0
0.54 0.24 0.0
0.56 0.24 0.0
0.58 0.24 0.0
0.6 0.24 0.0
0.62 0.24 0.0
0.64 0.24 0.0
0.66 0.24 0.0
0.68 0.24 0.0
0.7000000000000001 0.24 0.0
0.72 0.24 0.0
0.74 0.24 0.0
0.76 0.24 0.0
0.78 0.24 0.0
0.8 0.24 0.0
0.8200000000000001 0.24 0.0
0.84 0.24 0.0
0.86 0.24 0.0
0.88 0.24 0.0
0.9 0.24 0.0
0.92 0.24 0.0
0.9400000000000001 0.24 0.0
0.96 0.24 0.0
0.98 0.24 0.0
1.0 0.24 0.0
0.0 0.26 0.0
0.02 0.26 0.0
0.04 0.26 0.0
0.06 0.26 0.0
0.08 0.26 0.0
0.1 0.26 0.0
0.12 0.26 0.0
0.14 0.26 0.0
0.16 0.26 0.0
0.18 0.26 0.0
0.2 0.26 0.0
0.22 0.26 0.0
0.24 0.26 0.0
0.26 0.26 0.0
0.28 0.26 0.0
0.3 0.26 0.0
0.32 0.26 0.0
0.34 0.26 0.0
0.36 0.26 0.0
0.38 0.26 0.0
0.4 0.26 0.0
0.42 0.26 0.0
0.44 0.26 0.0
0.46 0.26 0.0
0.48 0.26 0.0
[...]
CELL_DATA 2500
SCALARS u float 1
LOOKUP_TABLE u_cell_table
1.8613549186536314e-05 1.980188578902878e-06 -1.4883216110358165e-05 -3.186575121601025e-05 -4.885907792697569e-05 -6.575914456949383e-05 -8.246769878446185e-05 -9.889355575677834e-05 -0.00011495358763629303 -0.00013057340933532707 -0.00014568774656134684 -0.00016024048279929693 -0.000174184392561701 -0.0001874805781708691 -0.00020009763626542207 -0.00021201058782722212 -0.0002231996115584214 -0.00023364862471714556 -0.00024334375791575233 -0.00025227177081942227 -0.00026041845411364653 -0.0002677670595183316 -0.0002742967939982715 -0.00027998140661703334 -0.00028478788661186324 -0.00028867527903791523 -0.00029159360938009243 -0.00029348289022805443 -0.00029427216038852217 -0.00029387847790394593 -0.0002922057504500499 -0.00028914323468786827 -0.00028456346230711603 -0.000278319241044038 -0.00027023921013116575 -0.0002601211590647595 -0.0002477218683170179 -0.00023274145213350366 -0.00021479878201210003 -0.00019339193192859398 -0.00016783236971447358 -0.00013713069915782935 -9.978736616072809e-05 -5.338309002359768e-05 6.289318718873376e-06 8.724654060849246e-05 0.00020654611653269164 0.00040541905831658915 0.0007980844400962397 0.0 1.858437578919174e-05 1.4573101237251584e-06 -1.5899900931351865e-05 -3.3372958445285206e-05 -5.085030154325723e-05 -6.822487533247185e-05 -8.539568985807024e-05 -0.00010226912482986118 -0.00011875994428828859 -0.00013479199589704234 -0.00015029858070012524 -0.0001652224904954043 -0.00017951572099959238 -0.00019313887929109288 -0.00020606031324603945 -0.00021825499851691604 -0.00022970322479682562 -0.000240389127483886 -0.0002502991132899528 -0.0002594202287586108 -0.00026773851904313183 -0.00027523742064580184 -0.00028189622614321853 -0.00028768865121030543 -0.00029258152445734483 -0.00029653360857521754 -0.0002994945467725387 -0.0003014039109944019 -0.0003021903071022374 -0.0003017704656938847 -0.0003000482133197616 -0.00029691317389150286 -0.0002922389882159432 -0.0002858807512158292 -0.0002776712356261316 -0.0002674152711527808 -0.00025488133409949393 -0.0002397888971224435 -0.0002217892603105561 -0.0002004362139302442 -0.00017514063630152347 -0.00014509964912226298 -0.00010918659927052713 -6.578782411314783e-05 -1.2603040097571884e-05 5.3382738509397554e-05 0.00013460642521643173 0.00022477435958106248 0.00026798100787165866 0.0 1.8515117673921153e-05 4.976510679047946e-07 -1.7749294309007783e-05 -3.6104999467898545e-05 -5.445181441674548e-05 -7.267703758053173e-05 -9.067456852852873e-05 -0.00010834628586648201 -0.00012560311248081477 -0.00014236574179940682 -0.00015856501084965564 -0.00017414191813505328 -0.00018904729622209668 -0.0002032411599778832 -0.00021669176123331226 -0.0002293743889444336 -0.0002412699604383982 -0.0002523634538877011 -0.0002626422346542947 -0.0002720943285397957 -0.00028070669327392214 -0.0002884635358070711 -0.0002953447171972043 -0.0003013242791455547 -0.00030636911656537705 -0.0003104378089379366 -0.0003134796095122757 -0.00031543357540582135 -0.0003162278029414152 -0.0003157787104239563 -0.0003139902839458957 -0.0003107531691164424 -0.00030594345054168353 -0.0002994209083380776 -0.00029102647317937524 -0.000280578515010358 -0.0002678674964623111 -0.0002526484166557666 -0.00023463042922263616 -0.0002134632444786553 -0.00018872101955432234 -0.00015988811467750183 -0.00012636219218149216 -8.752225288180798e-05 -4.299977278250742e-05 6.462351022153232e-06 5.655910189997096e-05 9.315336221337334e-05 7.97885194657069e-05 0.0 1.8384779347425766e-05 -9.377925335261189e-07 -2.0488049438206063e-05 -4.013565469522008e-05 -5.9753853744549945e-05 -7.922152460496535e-05 -9.842497427579606e-05 -0.00011725942847939756 -0.00013563017388766932 -0.00015345332494684678 -0.00017065620103169123 -0.00018717731333519998 -0.00020296597407712912 -0.0002179815527933674 -0.00023219241522410942 -0.0002455745893135677 -0.00025811020982057734 -0.00026978579785979714 -0.0002805904342705109 -0.0002905138860381097 -0.00029954474312131026 -0.00030766861905724783 -0.0003148664627429087 -0.00032111302095334587 -0.0003263754815814551 -0.0003306123163863612 -0.00033377232931478234 -0.00033579390229083377 -0.0003366044148276331 -0.00033611979700533777 -0.0003342441575227788 -0.00033086941025333566 -0.0003258748054479387 -0.0003191262587486066 -0.00031047536999527373 -0.0002997580510261154 -0.00028679277375970834 -0.00027137868677912496 -0.00025329440605538055 -0.00023229954998892077 -0.00020814391096915085 -0.00018059538715893206 -0.00014951135717824506 -0.00011500678315341708 -7.782857153931962e-05 -4.013837857238557e-05 -6.980320986019195e-06 1.1609539484184854e-05 1.1305660710999449e-07 0.0 1.816548832023375e-05 -2.901345304584871e-06 -2.419241739556443e-05 -4.556433572401597e-05 -6.687800772200905e-05 -8.800092727728921e-05 -0.0001088091691996522 -0.00012918903258621155 -0.0001490382880432288 -0.00016826699880030573 -0.00018679790147786788 -0.000204566347949099 -0.0002215198247282309 -0.00023761708005098827 -0.000252826900821828 -0.00026712659152788344 -0.0002805002148175877 -0.00029293665857631646 -0.00030442759696504285 -0.0003149654130653757 -0.0003245411486071329 -0.000333142541903351 -0.00034075220877846993 -0.00034734601316851023 -0.00035289166443812294 -0.0003573475675624643 -0.00036066194046749465 -0.00036277220039448164 -0.0003636046086883003 -0.00036307415172627923 -0.00036108462616081885 -0.00035752889159622846 -0.00035228925746407305 -0.0003452379908806206 -0.0003362379828831825 -0.00032514371824377084 -0.0003118029091217084 -0.0002960595696478094 -0.0002777601047769043 -0.0002567654913491978 -0.00023297543028951697 -0.00020637541917364194 -0.00017712636521895718 -0.0001457294374878626 -0.00011331257022135967 -8.207741236999216e-05 -5.584012192336434e-05 -4.019925924170827e-05 -4.086951764230035e-05 0.0 1.7822126243087835e-05 -5.459267240093962e-06 -2.895909011765667e-05 -5.2517132426528265e-05 -7.597843693632391e-05 -9.919589553683637e-05 -0.0001220325023822081 -0.00014436319689151156 -0.0001660762461284911 -0.00018707413399629991 -0.0002072739432284641 -0.0002266072345009076 -0.0002450194443686139 -0.00026246883948783 -0.00027892507819738885 -0.0002943674416195502 -0.0003087828047659922 -0.00032216342359679163 -0.000334504616596047 -0.0003458024193121745 -0.000356051287654713 -0.00036524192078964254 -0.0003733592675197483 -0.00038038077139489874 -0.00038627489982254984 -0.00039099999154186007 -0.0003945034454681921 -0.00039672126273563636 -0.0003975779436433684 -0.0003969867334639726 -0.0003948502077615436 -0.00039106119233232547 -0.0003855040306333644 -0.0003780562518322984 -0.00036859077095329233 -0.00035697889528580815 -0.0003430946623604481 -0.00032682146707370754 -0.00030806266433961935 -0.00028675902829641137 -0.00026291781641328994 -0.00023666084877610287 -0.00020830206657647225 -0.00017846629452189598 -0.00014825340054812342 -0.00011941808069556876 -9.444060805284885e-05 -7.617050199204903e-05 -6.65028436141954e-05 0.0 1.731186085951724e-05 -8.692554584889545e-06 -3.4906310217926347e-05 -6.114819851392103e-05 -8.724349461353316e-05 -0.000113026946140014 -0.00013834535381664417 -0.00016305966561548906 -0.00018704652714277448 -0.0002101992525983887 -0.00023242820286689583 -0.00025366057908150254 -0.0002738396604312441 -0.00029292353328655776 -0.0003108833743073365 -0.00032770136266843837 -0.0003433683056721301 -0.0003578810677657635 -0.00037123989543885825 -0.00038344572984516136 -0.00039449759557362227 -0.0004043901481292681 -0.00041311145477123615 -0.0004206410738119173 -0.00042694848676392335 -0.0004319919263395212 -0.00043571763186650613 -0.0004380595529604967 -0.0004389395133485429 -0.0004382678411072522 -0.0004359444715562854 -0.00043186053814305144 -0.0004259004902818094 -0.0004179448236433293 -0.00040787359068622606 -0.0003955709966497697 -0.0003809316068875551 -0.0003638690330822077 -0.00034432847129485696 -0.0003223051599084911 -0.00029787165350133975 -0.0002712174624884059 -0.00024270415750632206 -0.00021293521434341024 -0.00018282803993182467 -0.00015364832079928226 -0.00012691785979124844 -0.00010405054188970548 -8.559150600980989e-05 0.0 1.658357258575889e-05 -1.2697941807417526e-05 -4.2175270329920106e-05 -7.164150468949755e-05 -0.00010089777958583075 -0.00012975675339156958 -0.00015804559547324265 -0.0001856083898964661 -0.00021230788986354061 -0.00023802658367806477 -0.00026266705996980284 -0.0002861516860696387 -0.00030842163767897876 -0.0003294353394201373 -0.00034916639381434716 -0.00036760109029222547 -0.00038473559581537337 -0.0004005729346054166 -0.00041511986653868915 -0.0004283837723028129 -0.00044036964884685203 -0.00045107731146690287 -0.0004604988895594883 -0.000468616692169653 -0.0004754015075012462 -0.0004808113881264854 -0.00048479096139655625 -0.000487271293334386 -0.0004881703251645458 -0.00048739389609610105 -0.00048483736614477455 -0.0004803878617097787 -0.0004739271886695768 -0.0004653354990571384 -0.00045449586621444356 -0.00044130003016511687 -0.0004256557310787709 -0.00040749626153724003 -0.0003867931287919544 -0.00036357297169094683 -0.00033793996252252153 -0.00031010446115084175 -0.00028041689852955146 -0.0002494013781288631 -0.00021777440139064339 -0.0001864191938905583 -0.0001562688043188383 -0.00012804882317907045 -0.00010188544012957289 0.0 1.5577166065214657e-05 -1.7589126421949444e-05 -5.093183453536501e-05 -8.421300089282019e-05 -0.00011720467012295982 -0.00014969297505366963 -0.00018148162302882367 -0.00021239467602738628 -0.0002422785488595449 -0.0002710031823534194 -0.00029846238139745983 -0.0003245733393649839 -0.0003492753994437485 -0.0003725281286401875 -0.0003943088009702427 -0.00041460940216103085 -0.0004334332789520754 -0.00045079156194626976 -0.0004666994922697147 -0.0004811727795557474 -0.0004942241125587268 -0.0005058599346595572 -0.0005160775852841165 -0.0005248628954447046 -0.0005321883118465558 -0.0005380116098962261 -0.0005422752421704946 -0.0005449063562233488 -0.0005458175049840694 -0.0005449080656883406 -0.0005420663809688796 -0.0005371726406542413 -0.0005301025378851797 -0.0005207317618840129 -0.0005089414358709437 -0.000494624675028965 -0.0004776945250556516 -0.0004580936356401496 -0.0004358060918079696 -0.00041087179166958247 -0.0003834034636403232 -0.000353605574041853 -0.00032179253901134207 -0.00028840027205302796 -0.0002539798745712276 -0.00021915619642388744 -0.0001845313817836914 -0.00015052451373975297 -0.00011717768281454752 0.0 1.4222752793073903e-05 -2.3498246737130996e-05 -6.136862637856448e-05 -9.911324406341668e-05 -0.0001364694039112796 -0.00017319168412730304 -0.00020905603076620816 -0.00024386299130230334 -0.000277440000305924 -0.0003096426701117549 -0.0003403550799490028 -0.0003694890955590474 -0.0003969827861517415 -0.0004227980353556614 -0.00044691746675632783 -0.0004693408222845594 -0.0004900809431056582 -0.0005091595080879514 -0.0005266026849596473 -0.0005424368446205552 -0.0005566844805646688 -0.0005693604638142996 -0.0005804687499559652 -0.0005899996395384542 -0.0005979276769137523 -0.0006042102561960912 -0.0006087869869912668 -0.0006115798575527212 -0.0006124942197948023 -0.0006114206100426654 -0.0006082374126443611 -0.0006028143719617549 -0.0005950169632716355 -0.000584711646039961 -0.0005717720442403752 -0.0005560861257565154 -0.0005375644789188984 -0.0005161497908216239 -0.000491827582335653 -0.0004646380811211921 -0.00043468870516232255 -0.0004021658256723737 -0.000367343100873478 -0.00033058164125667443 -0.00029231489494750164 -0.0002530096755537607 -0.00021309702963675028 -0.00017287703161367185 -0.00013242318409911052 0.0 1.2439685628303637e-05 -3.0577652866015104e-05 -7.37075426275359e-05 -0.00011663056610321243 -0.0001590427903291336 -0.0002006614996090863 -0.00024123002501184009 -0.0002805215205251028 -0.0003183415841156844 -0.0003545296727298815 -0.00038895931053264596 -0.00042153713684685637 -0.00045220088220276726 -0.0004809163961093828 -0.0005076738776873257 -0.0005324834798171403 -0.0005553704691274907 -0.0005763701285504538 -0.0005955225871698217 -0.0006128677547121248 -0.0006284405263705566 -0.0006422664087712545 -0.0006543577007646871 -0.0006647103442026462 -0.0006733015406605453 -0.0006800882107824099 -0.0006850063540697925 -0.000687971348968564 -0.0006888792164937981 -0.0006876088558776067 -0.000684025248380415 -0.0006779836160152293 -0.0006693345158463567 -0.0006579298474920616 -0.0006436297498693053 -0.0006263103587321739 -0.0006058723799329284 -0.0005822503872130787 -0.0005554226481523416 -0.0005254210722010315 -0.0004923404995369057 -0.0004563459454296516 -0.0004176755577580127 -0.00037663604381123206 -0.00033358657942470296 -0.0002889076220782393 -0.00024295403974509966 -0.00019599894671751793 -0.0001481851755304464 0.0 1.0135419401442053e-05 -3.900202410660192e-05 -8.820277012964658e-05 -0.00013709487927154526 -0.0001853256668337966 -0.0002325685367389127 -0.0002785286992640461 -0.00032294759309985793 -0.00036560589372281946 -0.00040632505396867927 -0.00044496738524325494 -0.00048143474569607714 -0.0005156659522924413 -0.0005476330752362431 -0.000577336804640385 -0.0006048011005115334 -0.0006300673484657361 -0.000653188246076848 -0.0006742216396638124 -0.0006932245200919904 -0.0007102473702616848 -0.0007253290377525635 -0.0007384922847820524 -0.0007497401451972748 -0.0007590531954079945 -0.0007663878235231237 -0.0007716755588421491 -0.0007748235025099907 -0.000775715879718899 -0.0007742167144277985 -0.0007701736092010384 -0.0007634225953460942 -0.0007537940016407261 -0.0007411192725049762 -0.0007252386461411584 -0.0007060095753862764 -0.0006833157307711366 -0.000657076353594863 -0.0006272556077375688 -0.0005938713882965956 -0.0005570027593044188 -0.0005167948043122601 -0.0004734592235967859 -0.00042726864326635833 -0.0003785426247018969 -0.00032762428410700387 -0.00027484883436646075 -0.00022050945909429798 -0.00016483070931574452 0.0 7.204163494090032e-06 -4.897090184411909e-05 -0.00010514440587339538 -0.00016088224436174026 -0.00021577424310796275 -0.0002694423310445372 -0.0003215473281610922 -0.00037179413320563223 -0.00041993517463677354 -0.00046577206911792464 -0.0005091555100018262 -0.0005499834795008249 -0.0005881979393220684 -0.0006237802033507382 -0.0006567452315112011 -0.0006871351062835585 -0.0007150119633982099 -0.0007404506474828314 -0.0007635313537653152 -0.0007843325003512305 -0.0008029240540487091 -0.0008193615079616356 -0.0008336806825760294 -0.0008458934949444842 -0.0008559848136059497 -0.000863910490515484 -0.0008695966356806348 -0.0008729401753695127 -0.0008738107104712852 -0.000872053667534316 -0.0008674947107522556 -0.0008599453581329434 -0.0008492097184106271 -0.0008350922355795896 -0.0008174062929894015 -0.0007959834851328923 -0.0007706833070698516 -0.000741402931178364 -0.0007080866292949132 -0.000670734246833192 -0.0006294079427246364 -0.0005842361925968327 -0.000535413868253249 -0.00048319717150925937 -0.00042789250778350885 -0.0003698392765669918 -0.00030938820428008315 -0.00024687909989170795 -0.000182623972964098 0.0 3.5252816939675136e-06 -6.0711727423362616e-05 -0.0001248628090755842 -0.00018842036231278211 -0.0002509065163696124 -0.0003118829324030986 -0.00037095887925846574 -0.00042779732523827267 -0.0004821188887137746 -0.0005337035931437771 -0.0005823904700979557 -0.0006280751417472898 -0.0006707055879578427 -0.0007102763601797013 -0.0007468215438985459 -0.000780406794016357 -0.0008111207747302021 -0.0008390663295879796 -0.0008643516911081076 -0.0008870820154188615 -0.0009073514983924409 -0.0009252362979550992 -0.0009407884544245376 -0.0009540309681300013 -0.0009649541619829892 -0.0009735134264054184 -0.0009796284150231636 -0.0009831837314256393 -0.000984031119483288 -0.0009819931414550562 -0.00097686829854755 -0.0009684375167448517 -0.0009564718855103902 -0.0009407414970313459 -0.0009210251873171425 -0.0008971209254419899 -0.0008688565307575623 -0.0008361003169977815 -0.0007987711647482951 -0.0007568474110612941 -0.0007103738264389696 -0.0006594658496614746 -0.0006043102188367407 -0.0005451612519595389 -0.00048233239624265005 -0.0004161833772284313 -0.00034710434287674 -0.00027549961368078003 -0.00020177451143330027 0.0 -1.0386188695060694e-06 -7.448350029980871e-05 -0.0001477338505707776 -0.00022019519454239897 -0.00029130999120993706 -0.0003605694176187814 -0.0004275229932637764 -0.0004917857351763449 -0.0005530426642376823 -0.0006110506144714478 -0.0006656374204649304 -0.000716698666583044 -0.0007641922703246623 -0.0008081312383293546 -0.0008485749766187437 -0.0008856195579020031 -0.0009193873507920836 -0.0009500164020197314 -0.000977649937013502 -0.0010024263103043732 -0.0010244696985207283 -0.0010438817880891035 -0.0010607346692886339 -0.001075065109435877 -0.0010868703414307198 -0.0010961054697883237 -0.001102682564225479 -0.0011064714800777331 -0.0011073024142342377 -0.0011049701736573483 -0.0010992400995905325 -0.001089855552930303 -0.0010765468236684818 -0.0010590412786024217 -0.0010370745055871466 -0.0010104021486049101 -0.000978812055455268 -0.0009421362795303187 -0.0009002623916377593 -0.0008531434738413401 -0.0008008060982532834 -0.0007433555632811086 -0.0006809777044883229 -0.0006139367650264474 -0.0005425691505722315 -0.00046727342981803255 -0.00038849762919902775 -0.0003067255484631645 -0.00022246420091551894 0.0 -6.643985252990925e-06 -9.058120495867433e-05 -0.00017418527140036083 -0.00025675897408276166 -0.0003376510004860084 -0.000416270135562051 -0.000492096747501676 -0.0005646911879009994 -0.0006336989038898955 -0.0006988522282172088 -0.0007599689691169878 -0.0008169480559039911 -0.0008697626026315415 -0.0009184508279469761 -0.0009631053145813424 -0.0010038611091655013 -0.001040883156406892 -0.0010743535361719594 -0.0011044589330573076 -0.001131378720693457 -0.0011552739917447463 -0.0011762778128831869 -0.0011944869344540998 -0.0012099551386457706 -0.0012226883683279554 -0.0012326417411448495 -0.0012397185191018133 -0.0012437710714552012 -0.0012446038365591045 -0.0012419782546258637 -0.0012356196062701529 -0.0012252256494846925 -0.0012104768988341359 -0.0011910483340359726 -0.0011666222601750022 -0.001136901968836342 -0.0011016257698874508 -0.0010605808806775606 -0.0010136165788086123 -0.0009606559558199505 -0.0009017055665594929 -0.0008368622730686275 -0.0007663166583081402 -0.0006903525614349176 -0.0006093425821502296 -0.0005237398118967188 -0.00043406652359853637 -0.00034090097721294066 -0.000244863713195681 0.0 -1.3469100689791902e-05 -0.00010934119797010797 -0.0002047044225316902 -0.0002987399423475673 -0.00039068600412288726 -0.00047985508151333206 -0.0005656475972555981 -0.0006475617733789317 -0.0007251993853053494 -0.0007982674129169975 -0.0008665757790511756 -0.0009300315316511619 -0.000988629952720102 -0.001042443162572522 -0.0010916068329209147 -0.001136305631431831 -0.0011767579999306475 -0.0012132008258072605 -0.0012458745088256857 -0.0012750088602845287 -0.0013008102040220001 -0.001323449983458843 -0.0013430551186499676 -0.0013597003037320188 -0.0013734023885649599 -0.0013841169481197506 -0.00139173710782207 -0.0013960946606133245 -0.0013969634795591094 -0.0013940651958749884 -0.0013870770737226482 -0.001375641967741299 -0.001359380195129864 -0.0013379030899607954 -0.001310827933015929 -0.0012777938668208783 -0.0012384783154764031 -0.0011926133373342494 -0.0011400012533257092 -0.001080528825924458 -0.001014179227994346 -0.0009410410549559461 -0.0008613137169100893 -0.000775308715792792 -0.000683446572431811 -0.0005862495057708562 -0.00048433033840402165 -0.00037837843388985673 -0.00026914366878544316 0.0 -2.1717478327437645e-05 -0.00013114780238260987 -0.0002398477355070039 -0.00034685424017303484 -0.00045127534545858633 -0.0005523109019711786 -0.0006492689894993346 -0.0007415774442395932 -0.0008287902642484246 -0.000910588933419651 -0.0009867789549611108 -0.001057282089991389 -0.00112212494704007 -0.0011814246618419184 -0.0012353724472092958 -0.0012842157872717218 -0.0013282400086935993 -0.0013677498942155988 -0.0014030519212589795 -0.0014344376193953668 -0.0014621684524529447 -0.0014864625491405924 -0.0015074835335762