# vtk DataFile Version 3.0
vtk output
ASCII
DATASET STRUCTURED_GRID
DIMENSIONS 51 51 1
POINTS 2601 float
0.0 0.0 0.0
0.02 0.0 0.0
0.04 0.0 0.0
0.06 0.0 0.0
0.08 0.0 0.0
0.1 0.0 0.0
0.12 0.0 0.0
0.14 0.0 0.0
0.16 0.0 0.0
0.18 0.0 0.0
0.2 0.0 0.0
0.22 0.0 0.0
0.24 0.0 0.0
0.26 0.0 0.0
0.28 0.0 0.0
0.3 0.0 0.0
0.32 0.0 0.0
0.34 0.0 0.0
0.36 0.0 0.0
0.38 0.0 0.0
0.4 0.0 0.0
0.42 0.0 0.0
0.44 0.0 0.0
0.46 0.0 0.0
0.48 0.0 0.0
0.5 0.0 0.0
0.52 0.0 0.0
0.54 0.0 0.0
0.56 0.0 0.0
0.58 0.0 0.0
0.6 0.0 0.0
0.62 0.0 0.0
0.64 0.0 0.0
0.66 0.0 0.0
0.68 0.0 0.0
0.7000000000000001 0.0 0.0
0.72 0.0 0.0
0.74 0.0 0.0
0.76 0.0 0.0
0.78 0.0 0.0
0.8 0.0 0.0
0.8200000000000001 0.0 0.0
0.84 0.0 0.0
0.86 0.0 0.0
0.88 0.0 0.0
0.9 0.0 0.0
0.92 0.0 0.0
0.9400000000000001 0.0 0.0
0.96 0.0 0.0
0.98 0.0 0.0
1.0 0.0 0.0
0.0 0.02 0.0
0.02 0.02 0.0
0.04 0.02 0.0
0.06 0.02 0.0
0.08 0.02 0.0
0.1 0.02 0.0
0.12 0.02 0.0
0.14 0.02 0.0
0.16 0.02 0.0
0.18 0.02 0.0
0.2 0.02 0.0
0.22 0.02 0.0
0.24 0.02 0.0
0.26 0.02 0.0
0.28 0.02 0.0
0.3 0.02 0.0
0.32 0.02 0.0
0.34 0.02 0.0
0.36 0.02 0.0
0.38 0.02 0.0
0.4 0.02 0.0
0.42 0.02 0.0
0.44 0.02 0.0
0.46 0.02 0.0
0.48 0.02 0.0
0.5 0.02 0.0
0.52 0.02 0.0
0.54 0.02 0.0
0.56 0.02 0.0
0.58 0.02 0.0
0.6 0.02 0.0
0.62 0.02 0.0
0.64 0.02 0.0
0.66 0.02 0.0
0.68 0.02 0.0
0.7000000000000001 0.02 0.0
0.72 0.02 0.0
0.74 0.02 0.0
0.76 0.02 0.0
0.78 0.02 0.0
0.8 0.02 0.0
0.8200000000000001 0.02 0.0
0.84 0.02 0.0
0.86 0.02 0.0
0.88 0.02 0.0
0.9 0.02 0.0
0.92 0.02 0.0
0.9400000000000001 0.02 0.0
0.96 0.02 0.0
0.98 0.02 0.0
1.0 0.02 0.0
0.0 0.04 0.0
0.02 0.04 0.0
0.04 0.04 0.0
0.06 0.04 0.0
0.08 0.04 0.0
0.1 0.04 0.0
0.12 0.04 0.0
0.14 0.04 0.0
0.16 0.04 0.0
0.18 0.04 0.0
0.2 0.04 0.0
0.22 0.04 0.0
0.24 0.04 0.0
0.26 0.04 0.0
0.28 0.04 0.0
0.3 0.04 0.0
0.32 0.04 0.0
0.34 0.04 0.0
0.36 0.04 0.0
0.38 0.04 0.0
0.4 0.04 0.0
0.42 0.04 0.0
0.44 0.04 0.0
0.46 0.04 0.0
0.48 0.04 0.0
0.5 0.04 0.0
0.52 0.04 0.0
0.54 0.04 0.0
0.56 0.04 0.0
0.58 0.04 0.0
0.6 0.04 0.0
0.62 0.04 0.0
0.64 0.04 0.0
0.66 0.04 0.0
0.68 0.04 0.0
0.7000000000000001 0.04 0.0
0.72 0.04 0.0
0.74 0.04 0.0
0.76 0.04 0.0
0.78 0.04 0.0
0.8 0.04 0.0
0.8200000000000001 0.04 0.0
0.84 0.04 0.0
0.86 0.04 0.0
0.88 0.04 0.0
0.9 0.04 0.0
0.92 0.04 0.0
0.9400000000000001 0.04 0.0
0.96 0.04 0.0
0.98 0.04 0.0
1.0 0.04 0.0
0.0 0.06 0.0
0.02 0.06 0.0
0.04 0.06 0.0
0.06 0.06 0.0
0.08 0.06 0.0
0.1 0.06 0.0
0.12 0.06 0.0
0.14 0.06 0.0
0.16 0.06 0.0
0.18 0.06 0.0
0.2 0.06 0.0
0.22 0.06 0.0
0.24 0.06 0.0
0.26 0.06 0.0
0.28 0.06 0.0
0.3 0.06 0.0
0.32 0.06 0.0
0.34 0.06 0.0
0.36 0.06 0.0
0.38 0.06 0.0
0.4 0.06 0.0
0.42 0.06 0.0
0.44 0.06 0.0
0.46 0.06 0.0
0.48 0.06 0.0
0.5 0.06 0.0
0.52 0.06 0.0
0.54 0.06 0.0
0.56 0.06 0.0
0.58 0.06 0.0
0.6 0.06 0.0
0.62 0.06 0.0
0.64 0.06 0.0
0.66 0.06 0.0
0.68 0.06 0.0
0.7000000000000001 0.06 0.0
0.72 0.06 0.0
0.74 0.06 0.0
0.76 0.06 0.0
0.78 0.06 0.0
0.8 0.06 0.0
0.8200000000000001 0.06 0.0
0.84 0.06 0.0
0.86 0.06 0.0
0.88 0.06 0.0
0.9 0.06 0.0
0.92 0.06 0.0
0.9400000000000001 0.06 0.0
0.96 0.06 0.0
0.98 0.06 0.0
1.0 0.06 0.0
0.0 0.08 0.0
0.02 0.08 0.0
0.04 0.08 0.0
0.06 0.08 0.0
0.08 0.08 0.0
0.1 0.08 0.0
0.12 0.08 0.0
0.14 0.08 0.0
0.16 0.08 0.0
0.18 0.08 0.0
0.2 0.08 0.0
0.22 0.08 0.0
0.24 0.08 0.0
0.26 0.08 0.0
0.28 0.08 0.0
0.3 0.08 0.0
0.32 0.08 0.0
0.34 0.08 0.0
0.36 0.08 0.0
0.38 0.08 0.0
0.4 0.08 0.0
0.42 0.08 0.0
0.44 0.08 0.0
0.46 0.08 0.0
0.48 0.08 0.0
0.5 0.08 0.0
0.52 0.08 0.0
0.54 0.08 0.0
0.56 0.08 0.0
0.58 0.08 0.0
0.6 0.08 0.0
0.62 0.08 0.0
0.64 0.08 0.0
0.66 0.08 0.0
0.68 0.08 0.0
0.7000000000000001 0.08 0.0
0.72 0.08 0.0
0.74 0.08 0.0
0.76 0.08 0.0
0.78 0.08 0.0
0.8 0.08 0.0
0.8200000000000001 0.08 0.0
0.84 0.08 0.0
0.86 0.08 0.0
0.88 0.08 0.0
0.9 0.08 0.0
0.92 0.08 0.0
0.9400000000000001 0.08 0.0
0.96 0.08 0.0
0.98 0.08 0.0
1.0 0.08 0.0
0.0 0.1 0.0
0.02 0.1 0.0
0.04 0.1 0.0
0.06 0.1 0.0
0.08 0.1 0.0
0.1 0.1 0.0
0.12 0.1 0.0
0.14 0.1 0.0
0.16 0.1 0.0
0.18 0.1 0.0
0.2 0.1 0.0
0.22 0.1 0.0
0.24 0.1 0.0
0.26 0.1 0.0
0.28 0.1 0.0
0.3 0.1 0.0
0.32 0.1 0.0
0.34 0.1 0.0
0.36 0.1 0.0
0.38 0.1 0.0
0.4 0.1 0.0
0.42 0.1 0.0
0.44 0.1 0.0
0.46 0.1 0.0
0.48 0.1 0.0
0.5 0.1 0.0
0.52 0.1 0.0
0.54 0.1 0.0
0.56 0.1 0.0
0.58 0.1 0.0
0.6 0.1 0.0
0.62 0.1 0.0
0.64 0.1 0.0
0.66 0.1 0.0
0.68 0.1 0.0
0.7000000000000001 0.1 0.0
0.72 0.1 0.0
0.74 0.1 0.0
0.76 0.1 0.0
0.78 0.1 0.0
0.8 0.1 0.0
0.8200000000000001 0.1 0.0
0.84 0.1 0.0
0.86 0.1 0.0
0.88 0.1 0.0
0.9 0.1 0.0
0.92 0.1 0.0
0.9400000000000001 0.1 0.0
0.96 0.1 0.0
0.98 0.1 0.0
1.0 0.1 0.0
0.0 0.12 0.0
0.02 0.12 0.0
0.04 0.12 0.0
0.06 0.12 0.0
0.08 0.12 0.0
0.1 0.12 0.0
0.12 0.12 0.0
0.14 0.12 0.0
0.16 0.12 0.0
0.18 0.12 0.0
0.2 0.12 0.0
0.22 0.12 0.0
0.24 0.12 0.0
0.26 0.12 0.0
0.28 0.12 0.0
0.3 0.12 0.0
0.32 0.12 0.0
0.34 0.12 0.0
0.36 0.12 0.0
0.38 0.12 0.0
0.4 0.12 0.0
0.42 0.12 0.0
0.44 0.12 0.0
0.46 0.12 0.0
0.48 0.12 0.0
0.5 0.12 0.0
0.52 0.12 0.0
0.54 0.12 0.0
0.56 0.12 0.0
0.58 0.12 0.0
0.6 0.12 0.0
0.62 0.12 0.0
0.64 0.12 0.0
0.66 0.12 0.0
0.68 0.12 0.0
0.7000000000000001 0.12 0.0
0.72 0.12 0.0
0.74 0.12 0.0
0.76 0.12 0.0
0.78 0.12 0.0
0.8 0.12 0.0
0.8200000000000001 0.12 0.0
0.84 0.12 0.0
0.86 0.12 0.0
0.88 0.12 0.0
0.9 0.12 0.0
0.92 0.12 0.0
0.9400000000000001 0.12 0.0
0.96 0.12 0.0
0.98 0.12 0.0
1.0 0.12 0.0
0.0 0.14 0.0
0.02 0.14 0.0
0.04 0.14 0.0
0.06 0.14 0.0
0.08 0.14 0.0
0.1 0.14 0.0
0.12 0.14 0.0
0.14 0.14 0.0
0.16 0.14 0.0
0.18 0.14 0.0
0.2 0.14 0.0
0.22 0.14 0.0
0.24 0.14 0.0
0.26 0.14 0.0
0.28 0.14 0.0
0.3 0.14 0.0
0.32 0.14 0.0
0.34 0.14 0.0
0.36 0.14 0.0
0.38 0.14 0.0
0.4 0.14 0.0
0.42 0.14 0.0
0.44 0.14 0.0
0.46 0.14 0.0
0.48 0.14 0.0
0.5 0.14 0.0
0.52 0.14 0.0
0.54 0.14 0.0
0.56 0.14 0.0
0.58 0.14 0.0
0.6 0.14 0.0
0.62 0.14 0.0
0.64 0.14 0.0
0.66 0.14 0.0
0.68 0.14 0.0
0.7000000000000001 0.14 0.0
0.72 0.14 0.0
0.74 0.14 0.0
0.76 0.14 0.0
0.78 0.14 0.0
0.8 0.14 0.0
0.8200000000000001 0.14 0.0
0.84 0.14 0.0
0.86 0.14 0.0
0.88 0.14 0.0
0.9 0.14 0.0
0.92 0.14 0.0
0.9400000000000001 0.14 0.0
0.96 0.14 0.0
0.98 0.14 0.0
1.0 0.14 0.0
0.0 0.16 0.0
0.02 0.16 0.0
0.04 0.16 0.0
0.06 0.16 0.0
0.08 0.16 0.0
0.1 0.16 0.0
0.12 0.16 0.0
0.14 0.16 0.0
0.16 0.16 0.0
0.18 0.16 0.0
0.2 0.16 0.0
0.22 0.16 0.0
0.24 0.16 0.0
0.26 0.16 0.0
0.28 0.16 0.0
0.3 0.16 0.0
0.32 0.16 0.0
0.34 0.16 0.0
0.36 0.16 0.0
0.38 0.16 0.0
0.4 0.16 0.0
0.42 0.16 0.0
0.44 0.16 0.0
0.46 0.16 0.0
0.48 0.16 0.0
0.5 0.16 0.0
0.52 0.16 0.0
0.54 0.16 0.0
0.56 0.16 0.0
0.58 0.16 0.0
0.6 0.16 0.0
0.62 0.16 0.0
0.64 0.16 0.0
0.66 0.16 0.0
0.68 0.16 0.0
0.7000000000000001 0.16 0.0
0.72 0.16 0.0
0.74 0.16 0.0
0.76 0.16 0.0
0.78 0.16 0.0
0.8 0.16 0.0
0.8200000000000001 0.16 0.0
0.84 0.16 0.0
0.86 0.16 0.0
0.88 0.16 0.0
0.9 0.16 0.0
0.92 0.16 0.0
0.9400000000000001 0.16 0.0
0.96 0.16 0.0
0.98 0.16 0.0
1.0 0.16 0.0
0.0 0.18 0.0
0.02 0.18 0.0
0.04 0.18 0.0
0.06 0.18 0.0
0.08 0.18 0.0
0.1 0.18 0.0
0.12 0.18 0.0
0.14 0.18 0.0
0.16 0.18 0.0
0.18 0.18 0.0
0.2 0.18 0.0
0.22 0.18 0.0
0.24 0.18 0.0
0.26 0.18 0.0
0.28 0.18 0.0
0.3 0.18 0.0
0.32 0.18 0.0
0.34 0.18 0.0
0.36 0.18 0.0
0.38 0.18 0.0
0.4 0.18 0.0
0.42 0.18 0.0
0.44 0.18 0.0
0.46 0.18 0.0
0.48 0.18 0.0
0.5 0.18 0.0
0.52 0.18 0.0
0.54 0.18 0.0
0.56 0.18 0.0
0.58 0.18 0.0
0.6 0.18 0.0
0.62 0.18 0.0
0.64 0.18 0.0
0.66 0.18 0.0
0.68 0.18 0.0
0.7000000000000001 0.18 0.0
0.72 0.18 0.0
0.74 0.18 0.0
0.76 0.18 0.0
0.78 0.18 0.0
0.8 0.18 0.0
0.8200000000000001 0.18 0.0
0.84 0.18 0.0
0.86 0.18 0.0
0.88 0.18 0.0
0.9 0.18 0.0
0.92 0.18 0.0
0.9400000000000001 0.18 0.0
0.96 0.18 0.0
0.98 0.18 0.0
1.0 0.18 0.0
0.0 0.2 0.0
0.02 0.2 0.0
0.04 0.2 0.0
0.06 0.2 0.0
0.08 0.2 0.0
0.1 0.2 0.0
0.12 0.2 0.0
0.14 0.2 0.0
0.16 0.2 0.0
0.18 0.2 0.0
0.2 0.2 0.0
0.22 0.2 0.0
0.24 0.2 0.0
0.26 0.2 0.0
0.28 0.2 0.0
0.3 0.2 0.0
0.32 0.2 0.0
0.34 0.2 0.0
0.36 0.2 0.0
0.38 0.2 0.0
0.4 0.2 0.0
0.42 0.2 0.0
0.44 0.2 0.0
0.46 0.2 0.0
0.48 0.2 0.0
0.5 0.2 0.0
0.52 0.2 0.0
0.54 0.2 0.0
0.56 0.2 0.0
0.58 0.2 0.0
0.6 0.2 0.0
0.62 0.2 0.0
0.64 0.2 0.0
0.66 0.2 0.0
0.68 0.2 0.0
0.7000000000000001 0.2 0.0
0.72 0.2 0.0
0.74 0.2 0.0
0.76 0.2 0.0
0.78 0.2 0.0
0.8 0.2 0.0
0.8200000000000001 0.2 0.0
0.84 0.2 0.0
0.86 0.2 0.0
0.88 0.2 0.0
0.9 0.2 0.0
0.92 0.2 0.0
0.9400000000000001 0.2 0.0
0.96 0.2 0.0
0.98 0.2 0.0
1.0 0.2 0.0
0.0 0.22 0.0
0.02 0.22 0.0
0.04 0.22 0.0
0.06 0.22 0.0
0.08 0.22 0.0
0.1 0.22 0.0
0.12 0.22 0.0
0.14 0.22 0.0
0.16 0.22 0.0
0.18 0.22 0.0
0.2 0.22 0.0
0.22 0.22 0.0
0.24 0.22 0.0
0.26 0.22 0.0
0.28 0.22 0.0
0.3 0.22 0.0
0.32 0.22 0.0
0.34 0.22 0.0
0.36 0.22 0.0
0.38 0.22 0.0
0.4 0.22 0.0
0.42 0.22 0.0
0.44 0.22 0.0
0.46 0.22 0.0
0.48 0.22 0.0
0.5 0.22 0.0
0.52 0.22 0.0
0.54 0.22 0.0
0.56 0.22 0.0
0.58 0.22 0.0
0.6 0.22 0.0
0.62 0.22 0.0
0.64 0.22 0.0
0.66 0.22 0.0
0.68 0.22 0.0
0.7000000000000001 0.22 0.0
0.72 0.22 0.0
0.74 0.22 0.0
0.76 0.22 0.0
0.78 0.22 0.0
0.8 0.22 0.0
0.8200000000000001 0.22 0.0
0.84 0.22 0.0
0.86 0.22 0.0
0.88 0.22 0.0
0.9 0.22 0.0
0.92 0.22 0.0
0.9400000000000001 0.22 0.0
0.96 0.22 0.0
0.98 0.22 0.0
1.0 0.22 0.0
0.0 0.24 0.0
0.02 0.24 0.0
0.04 0.24 0.0
0.06 0.24 0.0
0.08 0.24 0.0
0.1 0.24 0.0
0.12 0.24 0.0
0.14 0.24 0.0
0.16 0.24 0.0
0.18 0.24 0.0
0.2 0.24 0.0
0.22 0.24 0.0
0.24 0.24 0.0
0.26 0.24 0.0
0.28 0.24 0.0
0.3 0.24 0.0
0.32 0.24 0.0
0.34 0.24 0.0
0.36 0.24 0.0
0.38 0.24 0.0
0.4 0.24 0.0
0.42 0.24 0.0
0.44 0.24 0.0
0.46 0.24 0.0
0.48 0.24 0.0
0.5 0.24 0.0
0.52 0.24 0.0
0.54 0.24 0.0
0.56 0.24 0.0
0.58 0.24 0.0
0.6 0.24 0.0
0.62 0.24 0.0
0.64 0.24 0.0
0.66 0.24 0.0
0.68 0.24 0.0
0.7000000000000001 0.24 0.0
0.72 0.24 0.0
0.74 0.24 0.0
0.76 0.24 0.0
0.78 0.24 0.0
0.8 0.24 0.0
0.8200000000000001 0.24 0.0
0.84 0.24 0.0
0.86 0.24 0.0
0.88 0.24 0.0
0.9 0.24 0.0
0.92 0.24 0.0
0.9400000000000001 0.24 0.0
0.96 0.24 0.0
0.98 0.24 0.0
1.0 0.24 0.0
0.0 0.26 0.0
0.02 0.26 0.0
0.04 0.26 0.0
0.06 0.26 0.0
0.08 0.26 0.0
0.1 0.26 0.0
0.12 0.26 0.0
0.14 0.26 0.0
0.16 0.26 0.0
0.18 0.26 0.0
0.2 0.26 0.0
0.22 0.26 0.0
0.24 0.26 0.0
0.26 0.26 0.0
0.28 0.26 0.0
0.3 0.26 0.0
0.32 0.26 0.0
0.34 0.26 0.0
0.36 0.26 0.0
0.38 0.26 0.0
0.4 0.26 0.0
0.42 0.26 0.0
0.44 0.26 0.0
0.46 0.26 0.0
0.48 0.26 0.0
[...]
CELL_DATA 2500
SCALARS u float 1
LOOKUP_TABLE u_cell_table
6.206364787435997e-05 0.00011802464818587369 0.00010649013353190845 7.254623906864373e-06 -0.00017971947499527977 -0.0004456940564788415 -0.0007786542475631936 -0.0011660011229828778 -0.0015956849182858495 -0.0020567675448896674 -0.0025394372967564383 -0.003035012816998952 -0.0035356426965914133 -0.004034187611248738 -0.004523870060497896 -0.004998197535985131 -0.005450674136720063 -0.005874831887383282 -0.006264050234166504 -0.006611714859011145 -0.006911154010700138 -0.007155915401228582 -0.00733980420738293 -0.007457248791064929 -0.007503406948238334 -0.007474574999283324 -0.007368313132633004 -0.007183838482265857 -0.006922108096201647 -0.00658612801318105 -0.0061809284387239856 -0.005713723796132593 -0.005193725660423068 -0.004632109010137517 -0.0040416377779837614 -0.0034364298403804583 -0.0028314122520091784 -0.0022419198302824914 -0.0016830316208077951 -0.0011690526316419983 -0.0007127565933591721 -0.00032469086507618775 -1.2061335824575537e-05 0.00022290569354445594 0.00038642713030992556 0.0005007393158517989 0.0006218575948641239 0.0008781728233610063 0.0015335355545721156 0.0 5.733169305677193e-05 4.1854480611809895e-05 -0.00013812591478354677 -0.0005197161720053703 -0.0011070064537706628 -0.0018852556105498817 -0.002830476938796226 -0.00391472638839546 -0.005109715405276845 -0.006388033173328894 -0.007724358933681406 -0.009095060872541406 -0.010478577995450333 -0.011854451028869027 -0.013203551603687844 -0.014507034507504377 -0.015746721396703627 -0.016904208127522743 -0.01796152678100474 -0.01890050097573667 -0.019703702903833213 -0.020354061023805964 -0.020836059971791533 -0.021135544610921257 -0.02124106252927797 -0.021143764030056078 -0.02083875125416472 -0.020324941749587863 -0.01960626568482267 -0.01869134593095225 -0.01759438357664317 -0.016334520103748265 -0.01493628198373673 -0.013428538726335513 -0.011844443584042694 -0.01021998135085144 -0.008593430836635264 -0.0070035823079892395 -0.005488817328269526 -0.004085107464689408 -0.0028247737787608614 -0.0017342400098660094 -0.0008322527257835651 -0.00012694649388378154 0.0003869412376432919 0.0007307449355297816 0.0009376387671716133 0.0010219346135468107 0.0008684616676068646 0.0 -1.0319761861034865e-05 -0.00019372453304775637 -0.0006324263243969582 -0.0013609881917243205 -0.002380949118636396 -0.0036728952987848643 -0.005204952269305901 -0.006939484052944634 -0.008836589635502937 -0.010857110639878844 -0.012963181492449098 -0.015119413905339813 -0.017292066322328378 -0.019449570431192574 -0.021561232291941984 -0.023597732823520647 -0.025529857308223183 -0.027329279571967367 -0.028967560481744474 -0.030417324065479156 -0.03165159887356978 -0.032645362856380984 -0.033375189258143555 -0.033821049270956645 -0.0339661471434486 -0.03379881003731024 -0.033312344945691644 -0.03250680769829837 -0.03138868604666763 -0.0299723277954015 -0.028279257016443134 -0.026339064255728583 -0.024188205687614095 -0.021870223856420932 -0.01943396511126324 -0.016933102644655286 -0.014423820574850886 -0.01196372511922181 -0.009609143962593724 -0.007413585083867977 -0.005424833757418881 -0.003683122064099987 -0.002218240346792419 -0.0010478671756357489 -0.00017602401660589016 0.0004048184502134142 0.0007058484646023124 0.0007250550855697625 0.00044639131039076504 0.0 -0.00010273488372182049 -0.0005030477731228012 -0.0012534613258067574 -0.002372423456176456 -0.0038519478700045234 -0.005664893120692707 -0.007772405816319219 -0.010128657225376057 -0.012685535458245844 -0.015394277619046784 -0.018207898807235282 -0.021080762391857164 -0.023969833327521325 -0.026833252530213514 -0.029631254468785246 -0.03232447961884491 -0.03487506063469932 -0.0372450974972324 -0.0393981488844091 -0.04129805974251984 -0.0429109016938117 -0.04420417489728618 -0.045149109126630664 -0.045720146649830595 -0.045897428372514835 -0.04566638884164423 -0.04502019784220485 -0.04395925473847217 -0.042493331061363875 -0.040640739363709766 -0.038429930614828724 -0.0358981388463449 -0.033092236366529554 -0.030066726037540847 -0.026883751007370053 -0.023610418822112084 -0.020317990429206113 -0.017078654731622747 -0.01396405627172009 -0.011041764317523172 -0.008373420755046136 -0.006011288332380389 -0.003996536438240609 -0.0023567250019703757 -0.0011056421353036884 -0.0002437753888524756 0.00023920163343046908 0.00036825412814423257 0.00021487003380151457 0.0 -0.0002022164179042491 -0.0008407765113566884 -0.001930103968783133 -0.0034648501005739556 -0.005421189552160309 -0.007761427637174188 -0.01043778404377247 -0.013397277674784658 -0.016583907200444017 -0.019941963763695097 -0.02341615471224537 -0.026953580470277908 -0.030502481572901974 -0.03401359565536893 -0.03743830532213259 -0.04072997754769894 -0.04384207861250283 -0.046729855228210986 -0.049348733805374745 -0.05165647738959913 -0.05361197794143379 -0.05517785204263963 -0.056319582549402954 -0.05700839969372715 -0.057220627176749916 -0.05694062307702732 -0.056160124479716245 -0.0548809841636434 -0.05311427987780877 -0.05088257436998272 -0.04821856038091084 -0.04516659724778063 -0.04178070682857897 -0.038125207856531854 -0.034271968201870145 -0.03030007286746418 -0.026292372823057894 -0.02233427611035632 -0.018509797903349504 -0.014899739054117973 -0.011577624703650202 -0.00860774062440079 -0.006041590142334386 -0.0039165368318170805 -0.0022535606207000013 -0.0010566362746103407 -0.0003093466199013189 3.423072421767498e-05 7.421132762542634e-05 0.0 -0.00030139167841845566 -0.0011838862637314578 -0.0026225866952228824 -0.0045840114364046015 -0.007025174409781523 -0.009894194406418108 -0.013133547591115822 -0.016681549867696238 -0.02047573406449422 -0.024453101066482602 -0.02855261891913078 -0.03271409869871935 -0.03688002680314473 -0.04099360070593572 -0.04500039796343585 -0.04884615785375792 -0.052478697799938835 -0.055845853830341 -0.058897857247048255 -0.061585635919726475 -0.06386367671514086 -0.0656887125753908 -0.06702295702665761 -0.06783307733225263 -0.06809359821208581 -0.06778598364967689 -0.06690195616734794 -0.06544246690735553 -0.06342065320359112 -0.060860460466724255 -0.05779896158587583 -0.0542844069472816 -0.050377662450963 -0.046149517322776765 -0.041681078236003345 -0.0370602725562371 -0.032381175609490075 -0.0277398137642568 -0.023232595689957225 -0.018951730181646854 -0.014983155661470952 -0.011402104595123667 -0.008271109726691355 -0.005636302888416855 -0.0035257844225450234 -0.0019461113348039644 -0.0008786143392136906 -0.000271049849311153 -2.6711513311800545e-05 0.0 -0.00039732995202286894 -0.0015212912448177758 -0.0033088847913320275 -0.005697809312871935 -0.00862311980287814 -0.012017608545006666 -0.015811515515812405 -0.019934900436733016 -0.02431737948002221 -0.028890571469465616 -0.033586891999639455 -0.03834162519636036 -0.04309085934295339 -0.04777339509170517 -0.05232826982800729 -0.05669685008317749 -0.06082037662095957 -0.06464248632161361 -0.06810704989883598 -0.07116120209001195 -0.07375356739873351 -0.0758377310163107 -0.07737080945906288 -0.07831719439639563 -0.07864733444324934 -0.0783415248050697 -0.07738871219516176 -0.07579006904627439 -0.07355760048410317 -0.07071722153735774 -0.06730692772080592 -0.06337909018636283 -0.0589979603855301 -0.05424093106679473 -0.04919520556085451 -0.04395787041131259 -0.03863169674261106 -0.033324051531886764 -0.028142016124825135 -0.023190411642419077 -0.01856667480546649 -0.014358508698994805 -0.010639111031436476 -0.007464948437457933 -0.004871592817180953 -0.0028712861797777637 -0.0014483347048176282 -0.0005552793052317363 -0.00010953373737624495 0.0 -0.0004890951219387532 -0.001847564059340362 -0.003977244064734919 -0.006786796306898647 -0.010189389409204327 -0.014100377728657356 -0.018438012986458478 -0.023122075695862745 -0.028075651749225747 -0.03322344966194215 -0.03849375613345541 -0.0438161039205128 -0.04912326076837842 -0.0543484537937006 -0.05942757251637364 -0.0642963123352286 -0.06889280081558677 -0.07315495580639352 -0.07702363582137904 -0.08044036303933846 -0.08335096721578246 -0.08570368714711568 -0.08745317711134123 -0.08855890452319208 -0.08898932698502142 -0.08872044447012786 -0.08773991789084716 -0.08604559182565549 -0.08364929269240792 -0.08057509771697265 -0.07686251605028448 -0.07256424496619346 -0.06774841751301598 -0.06249558589311866 -0.05689975380604739 -0.051064403978733415 -0.04510216680464736 -0.039129898778448864 -0.033267087208411865 -0.027630274362063823 -0.022330606133270973 -0.01746817770851322 -0.013129337760533773 -0.009381579540290109 -0.006271049944526451 -0.0038182468857114998 -0.002015907297892264 -0.0008264229723159279 -0.00018348406522936605 0.0 -0.0005763164359053562 -0.002160268171305088 -0.004620801550210277 -0.007839418519448721 -0.011706662386132827 -0.016121301337528267 -0.02098776049771656 -0.026216810081059055 -0.03172309861395486 -0.037426573201691446 -0.04324966526756089 -0.04911908268678635 -0.054962643299435204 -0.060711427063617346 -0.06629649765089343 -0.07165153066027878 -0.07670969157984976 -0.08140682132400681 -0.08567864636202453 -0.08946450605650273 -0.09270495294418113 -0.09534591862047155 -0.09733667110487666 -0.09863426208388153 -0.09920175174226598 -0.0990127492796083 -0.09804977406269468 -0.09630866825770977 -0.09379691242119664 -0.09053763590486691 -0.08656763674209926 -0.08194064898891035 -0.0767247529132071 -0.071004518607444 -0.06487748685543367 -0.05845486009706102 -0.05185685305899199 -0.04521180284698158 -0.03865046518020452 -0.032303760845661215 -0.026296472200468553 -0.020744217495784482 -0.01574730928094175 -0.011387742011738075 -0.007724026747463667 -0.004788969232620808 -0.0025864684282307215 -0.0010917169458327697 -0.00025303794739660627 0.0 -0.0006589886481291709 -0.002457852861510735 -0.005235660696045745 -0.008847562873406 -0.013163309382069322 -0.01806404494878176 -0.02344195684095772 -0.02919698179221968 -0.03523741684986093 -0.04147644085376953 -0.04783342759360814 -0.054230246915143554 -0.060593165140220576 -0.06684906838697821 -0.07292796333901959 -0.07875933661039743 -0.08427528473335373 -0.08940718109347404 -0.09408940700906947 -0.09825640856699523 -0.10184693491506655 -0.10480148980289655 -0.1070669441162067 -0.10859434076853242 -0.10934373289647813 -0.10928227032807099 -0.10838909507284691 -0.10665359187031542 -0.10408011917611981 -0.10068622270682218 -0.09650688419427442 -0.09159238247438632 -0.08601163272914897 -0.07984928389018639 -0.0732076690769791 -0.06620273690964722 -0.058964232992715256 -0.05163026234993241 -0.04434563408960652 -0.0372552599864515 -0.030501074880142535 -0.02421497437168614 -0.01851518609643872 -0.013499814440057975 -0.009243789134104625 -0.005794260329430933 -0.003169500428985272 -0.0013579133577370961 -0.0003211503346978202 0.0 -0.0007369261605319971 -0.002739442920026742 -0.005818531605632817 -0.009805589160826291 -0.014549573235897905 -0.01991615389978383 -0.025783953910131597 -0.0320443375723121 -0.03859726491307448 -0.04535191674361817 -0.05222236527837101 -0.05912900410555646 -0.06599418944762604 -0.07274444309545612 -0.07930624249852708 -0.08560897050611824 -0.09158100739313862 -0.0971533663605147 -0.10225617470082587 -0.10682288923701472 -0.11078719234347546 -0.11408766049744082 -0.11666506938564382 -0.11846739439927312 -0.11944750754335202 -0.11956839385389387 -0.11880119692235247 -0.1171305012035608 -0.1145526067135605 -0.11108062754427307 -0.10674273656871405 -0.10158667332043506 -0.09567752714418802 -0.08910109216767968 -0.08196063748394651 -0.07437850317697696 -0.06649136284142428 -0.05844964679549189 -0.05041113770373479 -0.042538289611211214 -0.034990592014434704 -0.027920513904202936 -0.021465719455956662 -0.015744932007361996 -0.010851505534778363 -0.006850773422870519 -0.003776630383268662 -0.001632018561211814 -0.0003901380194254501 0.0 -0.0008100632240711331 -0.003003807939124636 -0.006366901260089234 -0.01070788669259706 -0.01585758897158221 -0.021665606493300966 -0.02799958322483216 -0.034740635836553915 -0.041783253667785646 -0.04903034823301311 -0.05639405144998996 -0.06379071452878801 -0.07114264353204652 -0.07837325980648038 -0.08540973089202505 -0.09217844243617646 -0.09860843047320508 -0.10462724906830347 -0.11016507076132999 -0.11515098088611403 -0.11951760497072157 -0.12319784181726301 -0.1261299037082929 -0.12825451026386808 -0.12952026393460248 -0.1298813308754712 -0.12930307605364125 -0.12776021002569699 -0.12524253281134384 -0.12175339282310668 -0.11731521953452524 -0.11196792567465574 -0.10577367714957514 -0.09881463378667814 -0.09119620888567427 -0.08304341806704588 -0.07450187887496437 -0.06573219175631893 -0.056908279763911024 -0.048209771254751635 -0.039818007105658845 -0.031907239520477054 -0.024639512608711223 -0.01815628822643424 -0.012574018352345158 -0.007978152011477505 -0.004421254526380543 -0.0019210524576691733 -0.0004622791179462667 0.0 -0.0008780113251997757 -0.0032499156125659146 -0.0068775773884417685 -0.011549599400277204 -0.017078848766093183 -0.02330176920660343 -0.030073870168521886 -0.03726906793631821 -0.044774291630705995 -0.05248959562903147 -0.06032253719857216 -0.0681893081877795 -0.0760092323659954 -0.08370693500836743 -0.09120715435249308 -0.09843785041233931 -0.10532542442963048 -0.11179860614391395 -0.11778411100859175 -0.12321113481312695 -0.12800746183685263 -0.1321044363285621 -0.13543356139739524 -0.1379318839547395 -0.13953916126359928 -0.14020364265297228 -0.13987987711809768 -0.138534847993911 -0.1361464007537874 -0.13270954592349354 -0.12823527446637423 -0.12275658569916277 -0.11632715092485424 -0.10902630702210062 -0.10095672845575092 -0.09224740229379748 -0.08304936639741411 -0.07353577176670133 -0.06389506931256245 -0.05432786266641185 -0.04503777954181644 -0.03622587812803705 -0.028080589526966085 -0.020771534704105317 -0.014440786873571178 -0.009198433543578839 -0.005117383959667156 -0.002232430980599198 -0.0005396801811617196 0.0 -0.0009405187725379249 -0.003476106217602005 -0.0073476985095164435 -0.012324848848329238 -0.01820560911365053 -0.024812747030084337 -0.031992881904949255 -0.03961099943568105 -0.04754996846308466 -0.05570443510310261 -0.06398129164355526 -0.07229353447074957 -0.08056185680504822 -0.0887087788619568 -0.09666131540622379 -0.10434551733816118 -0.11169004670837436 -0.11862116806111246 -0.12506702691914579 -0.13095309651329262 -0.1362069935490973 -0.14075441654039073 -0.14452442053187445 -0.1474459470007616 -0.1494535698403993 -0.15048476148711865 -0.15048615648329988 -0.14941166448597767 -0.14722921894041738 -0.14391968465620225 -0.1394838311968205 -0.13394167083361228 -0.12733902825637586 -0.11974652869017555 -0.11126472340006333 -0.10202158270644773 -0.09217490222922314 -0.08190712223466616 -0.07142399845080205 -0.0609461706339766 -0.05070405256221503 -0.04092685833733486 -0.03183514853684231 -0.02362949870361357 -0.016483364924035612 -0.0105343053890651 -0.005879860755408223 -0.002573478225386399 -0.0006245734987372508 0.0 -0.0009969963874453176 -0.0036809612332670905 -0.007773478639489034 -0.013028288578094219 -0.019228803312972848 -0.02618751612949435 -0.033740922290039055 -0.04174867075849668 -0.05008724769680639 -0.05864982719181662 -0.06733960406073806 -0.0760707478996814 -0.08476187778859105 -0.09333818796662481 -0.10172530154303312 -0.10985243570737808 -0.1176467098707734 -0.12503712846927242 -0.13194934723720425 -0.13831026359984083 -0.1440432597652192 -0.14907328142619344 -0.15332265173793894 -0.1567166423974781 -0.15918003817760207 -0.16064329929325155 -0.16104008946446383 -0.16031413073280787 -0.1584178257984924 -0.15531975819242005 -0.15100428900343307 -0.14547931875790227 -0.13877630157385024 -0.13095738025880727 -0.12211470966103632 -0.11237555121690815 -0.10189936979697607 -0.09087926326987271 -0.07953540824505809 -0.06811174910508908 -0.05686540579990391 -0.04605906432656926 -0.03594782420004096 -0.026769706313355082 -0.018733163999087615 -0.012009277870294408 -0.006723404978262333 -0.0029518064056417263 -0.0007190433333464107 0.0 -0.0010470757778715696 -0.0038624647094559214 -0.008151642640153662 -0.013653479360788864 -0.02014025249802191 -0.027413556987586744 -0.035303432362905195 -0.043662230192547336 -0.05236400509322921 -0.06129754459528815 -0.07036670298992156 -0.07948331676324016 -0.0885687279804623 -0.09754697568467789 -0.1063474668684832 -0.11489860037550653 -0.12313137942271743 -0.13097349281557805 -0.13835362374423718 -0.14519598930957495 -0.15142517001757794 -0.15696117394706835 -0.16172474756271332 -0.1656331397990751 -0.16860599734172513 -0.1705620958296355 -0.17142600630490204 -0.17112606991000764 -0.16960198086663658 -0.16680413866408406 -0.1627020599221873 -0.15728488228765528 -0.1505700423572277 -0.142604104520913 -0.13347045676768338 -0.12328891077337921 -0.11222050575253689 -0.10046384769403507 -0.08825498940722364 -0.07585886283167304 -0.06356323729875253 -0.051665309238105056 -0.04046103373536702 -0.03022953201407548 -0.02122156150209302 -0.013646227715482377 -0.007663058630871826 -0.0033747846126334297 -0.0008253208957323152 0.0 -0.001090078492781693 -0.004019060644684205 -0.008478150748515502 -0.014194937487535622 -0.020930673719259038 -0.028479776846563477 -0.03666436057776106 -0.04533342454454819 -0.05435591319916573 -0.06362054244004733 -0.07302834328302137 -0.08249358407435069 -0.09193638202184572 -0.10128482297057598 -0.11046792833901013 -0.11941883060749885 -0.1280681806847313 -0.1363481259065588 -0.14418615854894803 -0.15150966575080485 -0.15824025017596902 -0.16429874475159897 -0.16960014422439998 -0.17405914504315853 -0.17758595575797076 -0.18009257064388384 -0.18148981617393492 -0.18169463284002196 -0.1806286963717567 -0.17822689243544482 -0.17443763902197887 -0.16923240117292193 -0.1626073380734775 -0.15459304115971292 -0.14525630066278372 -0.13470831578257866 -0.12310441497818114 -0.11064816632593945 -0.09758639672801837 -0.08420672570641682 -0.07082611682069218 -0.057781186564178834 -0.045411242490772816 -0.03404406430534248 -0.023977819873044575 -0.015467835637375476 -0.008713263748602037 -0.0038499749982029265 -0.000945478126827092 0.0 -0.0011256499425512283 -0.004148742764413729 -0.008749917164857018 -0.014646482898227883 -0.02159244277502528 -0.02937419681093866 -0.03780985435737904 -0.046742744265458755 -0.056040942758282766 -0.06558973380576173 -0.0752920118685427 -0.08506047268629552 -0.09481917169969031 -0.10449590503117107 -0.1140248986552142 -0.12333957361130939 -0.13237614874221093 -0.14106682563543196 -0.14934404017447436 -0.15713407396614837 -0.16436177313853634 -0.17094467209465858 -0.17679816227808245 -0.18183035186389307 -0.1859478524684195 -0.18905174010474285 -0.19104427797933046 -0.19182643310650016 -0.191305906323093 -0.1893966171293991 -0.18602827144527612 -0.18114792959596 -0.1747308649472481 -0.16678362415083134 -0.15735499343621673 -0.14653880221754023 -0.13448252930490104 -0.12138683545383905 -0.10750835961430014 -0.09315257282039856 -0.07866787380777734 -0.06443013245997013 -0.050828290208453177 -0.03824314375958564 -0.027029327990977514 -0.01749511831358892 -0.009888392928977068 -0.0043845728005242855 -0.00108174530038653 0.0 -0.001153166842290401 -0.004250259586608145 -0.00896345288414176 -0.015003651531394886 -0.02211756441420225 -0.030087470514110447 -0.03872565175832979 -0.04787390838441747 -0.05739632167059231 -0.06717930991612472 -0.07712365084007951 -0.08714553494292533 -0.09716849467431694 -0.1071255899807142 -0.11695159476155426 -0.12658618725295598 -0.13596651268688506 -0.14503111929213772 -0.1537129103322815 -0.16194358386059718 -0.1696470113822125 -0.17674407147149004 -0.1831466080716128 -0.1887627382262441 -0.19349170175796002 -0.1972299214529532 -0.19986721418259507 -0.20129404384544156 -0.20139966809502674 -0.20008107881898585 -0.19724360111147013 -0.19281181647423656 -0.18673271478424242 -0.1789882130830671 -0.16959995064687877 -0.15864167339465154 -0.14624312380253282 -0.13259879202594177 -0.11796671159964796 -0.10266899153729596 -0.08708127164660093 -0.07162192487868606 -0.056731216659823884 -0.04