# vtk DataFile Version 3.0
vtk output
ASCII
DATASET STRUCTURED_GRID
DIMENSIONS 51 51 1
POINTS 2601 float
0.0 0.0 0.0
0.02 0.0 0.0
0.04 0.0 0.0
0.06 0.0 0.0
0.08 0.0 0.0
0.1 0.0 0.0
0.12 0.0 0.0
0.14 0.0 0.0
0.16 0.0 0.0
0.18 0.0 0.0
0.2 0.0 0.0
0.22 0.0 0.0
0.24 0.0 0.0
0.26 0.0 0.0
0.28 0.0 0.0
0.3 0.0 0.0
0.32 0.0 0.0
0.34 0.0 0.0
0.36 0.0 0.0
0.38 0.0 0.0
0.4 0.0 0.0
0.42 0.0 0.0
0.44 0.0 0.0
0.46 0.0 0.0
0.48 0.0 0.0
0.5 0.0 0.0
0.52 0.0 0.0
0.54 0.0 0.0
0.56 0.0 0.0
0.58 0.0 0.0
0.6 0.0 0.0
0.62 0.0 0.0
0.64 0.0 0.0
0.66 0.0 0.0
0.68 0.0 0.0
0.7000000000000001 0.0 0.0
0.72 0.0 0.0
0.74 0.0 0.0
0.76 0.0 0.0
0.78 0.0 0.0
0.8 0.0 0.0
0.8200000000000001 0.0 0.0
0.84 0.0 0.0
0.86 0.0 0.0
0.88 0.0 0.0
0.9 0.0 0.0
0.92 0.0 0.0
0.9400000000000001 0.0 0.0
0.96 0.0 0.0
0.98 0.0 0.0
1.0 0.0 0.0
0.0 0.02 0.0
0.02 0.02 0.0
0.04 0.02 0.0
0.06 0.02 0.0
0.08 0.02 0.0
0.1 0.02 0.0
0.12 0.02 0.0
0.14 0.02 0.0
0.16 0.02 0.0
0.18 0.02 0.0
0.2 0.02 0.0
0.22 0.02 0.0
0.24 0.02 0.0
0.26 0.02 0.0
0.28 0.02 0.0
0.3 0.02 0.0
0.32 0.02 0.0
0.34 0.02 0.0
0.36 0.02 0.0
0.38 0.02 0.0
0.4 0.02 0.0
0.42 0.02 0.0
0.44 0.02 0.0
0.46 0.02 0.0
0.48 0.02 0.0
0.5 0.02 0.0
0.52 0.02 0.0
0.54 0.02 0.0
0.56 0.02 0.0
0.58 0.02 0.0
0.6 0.02 0.0
0.62 0.02 0.0
0.64 0.02 0.0
0.66 0.02 0.0
0.68 0.02 0.0
0.7000000000000001 0.02 0.0
0.72 0.02 0.0
0.74 0.02 0.0
0.76 0.02 0.0
0.78 0.02 0.0
0.8 0.02 0.0
0.8200000000000001 0.02 0.0
0.84 0.02 0.0
0.86 0.02 0.0
0.88 0.02 0.0
0.9 0.02 0.0
0.92 0.02 0.0
0.9400000000000001 0.02 0.0
0.96 0.02 0.0
0.98 0.02 0.0
1.0 0.02 0.0
0.0 0.04 0.0
0.02 0.04 0.0
0.04 0.04 0.0
0.06 0.04 0.0
0.08 0.04 0.0
0.1 0.04 0.0
0.12 0.04 0.0
0.14 0.04 0.0
0.16 0.04 0.0
0.18 0.04 0.0
0.2 0.04 0.0
0.22 0.04 0.0
0.24 0.04 0.0
0.26 0.04 0.0
0.28 0.04 0.0
0.3 0.04 0.0
0.32 0.04 0.0
0.34 0.04 0.0
0.36 0.04 0.0
0.38 0.04 0.0
0.4 0.04 0.0
0.42 0.04 0.0
0.44 0.04 0.0
0.46 0.04 0.0
0.48 0.04 0.0
0.5 0.04 0.0
0.52 0.04 0.0
0.54 0.04 0.0
0.56 0.04 0.0
0.58 0.04 0.0
0.6 0.04 0.0
0.62 0.04 0.0
0.64 0.04 0.0
0.66 0.04 0.0
0.68 0.04 0.0
0.7000000000000001 0.04 0.0
0.72 0.04 0.0
0.74 0.04 0.0
0.76 0.04 0.0
0.78 0.04 0.0
0.8 0.04 0.0
0.8200000000000001 0.04 0.0
0.84 0.04 0.0
0.86 0.04 0.0
0.88 0.04 0.0
0.9 0.04 0.0
0.92 0.04 0.0
0.9400000000000001 0.04 0.0
0.96 0.04 0.0
0.98 0.04 0.0
1.0 0.04 0.0
0.0 0.06 0.0
0.02 0.06 0.0
0.04 0.06 0.0
0.06 0.06 0.0
0.08 0.06 0.0
0.1 0.06 0.0
0.12 0.06 0.0
0.14 0.06 0.0
0.16 0.06 0.0
0.18 0.06 0.0
0.2 0.06 0.0
0.22 0.06 0.0
0.24 0.06 0.0
0.26 0.06 0.0
0.28 0.06 0.0
0.3 0.06 0.0
0.32 0.06 0.0
0.34 0.06 0.0
0.36 0.06 0.0
0.38 0.06 0.0
0.4 0.06 0.0
0.42 0.06 0.0
0.44 0.06 0.0
0.46 0.06 0.0
0.48 0.06 0.0
0.5 0.06 0.0
0.52 0.06 0.0
0.54 0.06 0.0
0.56 0.06 0.0
0.58 0.06 0.0
0.6 0.06 0.0
0.62 0.06 0.0
0.64 0.06 0.0
0.66 0.06 0.0
0.68 0.06 0.0
0.7000000000000001 0.06 0.0
0.72 0.06 0.0
0.74 0.06 0.0
0.76 0.06 0.0
0.78 0.06 0.0
0.8 0.06 0.0
0.8200000000000001 0.06 0.0
0.84 0.06 0.0
0.86 0.06 0.0
0.88 0.06 0.0
0.9 0.06 0.0
0.92 0.06 0.0
0.9400000000000001 0.06 0.0
0.96 0.06 0.0
0.98 0.06 0.0
1.0 0.06 0.0
0.0 0.08 0.0
0.02 0.08 0.0
0.04 0.08 0.0
0.06 0.08 0.0
0.08 0.08 0.0
0.1 0.08 0.0
0.12 0.08 0.0
0.14 0.08 0.0
0.16 0.08 0.0
0.18 0.08 0.0
0.2 0.08 0.0
0.22 0.08 0.0
0.24 0.08 0.0
0.26 0.08 0.0
0.28 0.08 0.0
0.3 0.08 0.0
0.32 0.08 0.0
0.34 0.08 0.0
0.36 0.08 0.0
0.38 0.08 0.0
0.4 0.08 0.0
0.42 0.08 0.0
0.44 0.08 0.0
0.46 0.08 0.0
0.48 0.08 0.0
0.5 0.08 0.0
0.52 0.08 0.0
0.54 0.08 0.0
0.56 0.08 0.0
0.58 0.08 0.0
0.6 0.08 0.0
0.62 0.08 0.0
0.64 0.08 0.0
0.66 0.08 0.0
0.68 0.08 0.0
0.7000000000000001 0.08 0.0
0.72 0.08 0.0
0.74 0.08 0.0
0.76 0.08 0.0
0.78 0.08 0.0
0.8 0.08 0.0
0.8200000000000001 0.08 0.0
0.84 0.08 0.0
0.86 0.08 0.0
0.88 0.08 0.0
0.9 0.08 0.0
0.92 0.08 0.0
0.9400000000000001 0.08 0.0
0.96 0.08 0.0
0.98 0.08 0.0
1.0 0.08 0.0
0.0 0.1 0.0
0.02 0.1 0.0
0.04 0.1 0.0
0.06 0.1 0.0
0.08 0.1 0.0
0.1 0.1 0.0
0.12 0.1 0.0
0.14 0.1 0.0
0.16 0.1 0.0
0.18 0.1 0.0
0.2 0.1 0.0
0.22 0.1 0.0
0.24 0.1 0.0
0.26 0.1 0.0
0.28 0.1 0.0
0.3 0.1 0.0
0.32 0.1 0.0
0.34 0.1 0.0
0.36 0.1 0.0
0.38 0.1 0.0
0.4 0.1 0.0
0.42 0.1 0.0
0.44 0.1 0.0
0.46 0.1 0.0
0.48 0.1 0.0
0.5 0.1 0.0
0.52 0.1 0.0
0.54 0.1 0.0
0.56 0.1 0.0
0.58 0.1 0.0
0.6 0.1 0.0
0.62 0.1 0.0
0.64 0.1 0.0
0.66 0.1 0.0
0.68 0.1 0.0
0.7000000000000001 0.1 0.0
0.72 0.1 0.0
0.74 0.1 0.0
0.76 0.1 0.0
0.78 0.1 0.0
0.8 0.1 0.0
0.8200000000000001 0.1 0.0
0.84 0.1 0.0
0.86 0.1 0.0
0.88 0.1 0.0
0.9 0.1 0.0
0.92 0.1 0.0
0.9400000000000001 0.1 0.0
0.96 0.1 0.0
0.98 0.1 0.0
1.0 0.1 0.0
0.0 0.12 0.0
0.02 0.12 0.0
0.04 0.12 0.0
0.06 0.12 0.0
0.08 0.12 0.0
0.1 0.12 0.0
0.12 0.12 0.0
0.14 0.12 0.0
0.16 0.12 0.0
0.18 0.12 0.0
0.2 0.12 0.0
0.22 0.12 0.0
0.24 0.12 0.0
0.26 0.12 0.0
0.28 0.12 0.0
0.3 0.12 0.0
0.32 0.12 0.0
0.34 0.12 0.0
0.36 0.12 0.0
0.38 0.12 0.0
0.4 0.12 0.0
0.42 0.12 0.0
0.44 0.12 0.0
0.46 0.12 0.0
0.48 0.12 0.0
0.5 0.12 0.0
0.52 0.12 0.0
0.54 0.12 0.0
0.56 0.12 0.0
0.58 0.12 0.0
0.6 0.12 0.0
0.62 0.12 0.0
0.64 0.12 0.0
0.66 0.12 0.0
0.68 0.12 0.0
0.7000000000000001 0.12 0.0
0.72 0.12 0.0
0.74 0.12 0.0
0.76 0.12 0.0
0.78 0.12 0.0
0.8 0.12 0.0
0.8200000000000001 0.12 0.0
0.84 0.12 0.0
0.86 0.12 0.0
0.88 0.12 0.0
0.9 0.12 0.0
0.92 0.12 0.0
0.9400000000000001 0.12 0.0
0.96 0.12 0.0
0.98 0.12 0.0
1.0 0.12 0.0
0.0 0.14 0.0
0.02 0.14 0.0
0.04 0.14 0.0
0.06 0.14 0.0
0.08 0.14 0.0
0.1 0.14 0.0
0.12 0.14 0.0
0.14 0.14 0.0
0.16 0.14 0.0
0.18 0.14 0.0
0.2 0.14 0.0
0.22 0.14 0.0
0.24 0.14 0.0
0.26 0.14 0.0
0.28 0.14 0.0
0.3 0.14 0.0
0.32 0.14 0.0
0.34 0.14 0.0
0.36 0.14 0.0
0.38 0.14 0.0
0.4 0.14 0.0
0.42 0.14 0.0
0.44 0.14 0.0
0.46 0.14 0.0
0.48 0.14 0.0
0.5 0.14 0.0
0.52 0.14 0.0
0.54 0.14 0.0
0.56 0.14 0.0
0.58 0.14 0.0
0.6 0.14 0.0
0.62 0.14 0.0
0.64 0.14 0.0
0.66 0.14 0.0
0.68 0.14 0.0
0.7000000000000001 0.14 0.0
0.72 0.14 0.0
0.74 0.14 0.0
0.76 0.14 0.0
0.78 0.14 0.0
0.8 0.14 0.0
0.8200000000000001 0.14 0.0
0.84 0.14 0.0
0.86 0.14 0.0
0.88 0.14 0.0
0.9 0.14 0.0
0.92 0.14 0.0
0.9400000000000001 0.14 0.0
0.96 0.14 0.0
0.98 0.14 0.0
1.0 0.14 0.0
0.0 0.16 0.0
0.02 0.16 0.0
0.04 0.16 0.0
0.06 0.16 0.0
0.08 0.16 0.0
0.1 0.16 0.0
0.12 0.16 0.0
0.14 0.16 0.0
0.16 0.16 0.0
0.18 0.16 0.0
0.2 0.16 0.0
0.22 0.16 0.0
0.24 0.16 0.0
0.26 0.16 0.0
0.28 0.16 0.0
0.3 0.16 0.0
0.32 0.16 0.0
0.34 0.16 0.0
0.36 0.16 0.0
0.38 0.16 0.0
0.4 0.16 0.0
0.42 0.16 0.0
0.44 0.16 0.0
0.46 0.16 0.0
0.48 0.16 0.0
0.5 0.16 0.0
0.52 0.16 0.0
0.54 0.16 0.0
0.56 0.16 0.0
0.58 0.16 0.0
0.6 0.16 0.0
0.62 0.16 0.0
0.64 0.16 0.0
0.66 0.16 0.0
0.68 0.16 0.0
0.7000000000000001 0.16 0.0
0.72 0.16 0.0
0.74 0.16 0.0
0.76 0.16 0.0
0.78 0.16 0.0
0.8 0.16 0.0
0.8200000000000001 0.16 0.0
0.84 0.16 0.0
0.86 0.16 0.0
0.88 0.16 0.0
0.9 0.16 0.0
0.92 0.16 0.0
0.9400000000000001 0.16 0.0
0.96 0.16 0.0
0.98 0.16 0.0
1.0 0.16 0.0
0.0 0.18 0.0
0.02 0.18 0.0
0.04 0.18 0.0
0.06 0.18 0.0
0.08 0.18 0.0
0.1 0.18 0.0
0.12 0.18 0.0
0.14 0.18 0.0
0.16 0.18 0.0
0.18 0.18 0.0
0.2 0.18 0.0
0.22 0.18 0.0
0.24 0.18 0.0
0.26 0.18 0.0
0.28 0.18 0.0
0.3 0.18 0.0
0.32 0.18 0.0
0.34 0.18 0.0
0.36 0.18 0.0
0.38 0.18 0.0
0.4 0.18 0.0
0.42 0.18 0.0
0.44 0.18 0.0
0.46 0.18 0.0
0.48 0.18 0.0
0.5 0.18 0.0
0.52 0.18 0.0
0.54 0.18 0.0
0.56 0.18 0.0
0.58 0.18 0.0
0.6 0.18 0.0
0.62 0.18 0.0
0.64 0.18 0.0
0.66 0.18 0.0
0.68 0.18 0.0
0.7000000000000001 0.18 0.0
0.72 0.18 0.0
0.74 0.18 0.0
0.76 0.18 0.0
0.78 0.18 0.0
0.8 0.18 0.0
0.8200000000000001 0.18 0.0
0.84 0.18 0.0
0.86 0.18 0.0
0.88 0.18 0.0
0.9 0.18 0.0
0.92 0.18 0.0
0.9400000000000001 0.18 0.0
0.96 0.18 0.0
0.98 0.18 0.0
1.0 0.18 0.0
0.0 0.2 0.0
0.02 0.2 0.0
0.04 0.2 0.0
0.06 0.2 0.0
0.08 0.2 0.0
0.1 0.2 0.0
0.12 0.2 0.0
0.14 0.2 0.0
0.16 0.2 0.0
0.18 0.2 0.0
0.2 0.2 0.0
0.22 0.2 0.0
0.24 0.2 0.0
0.26 0.2 0.0
0.28 0.2 0.0
0.3 0.2 0.0
0.32 0.2 0.0
0.34 0.2 0.0
0.36 0.2 0.0
0.38 0.2 0.0
0.4 0.2 0.0
0.42 0.2 0.0
0.44 0.2 0.0
0.46 0.2 0.0
0.48 0.2 0.0
0.5 0.2 0.0
0.52 0.2 0.0
0.54 0.2 0.0
0.56 0.2 0.0
0.58 0.2 0.0
0.6 0.2 0.0
0.62 0.2 0.0
0.64 0.2 0.0
0.66 0.2 0.0
0.68 0.2 0.0
0.7000000000000001 0.2 0.0
0.72 0.2 0.0
0.74 0.2 0.0
0.76 0.2 0.0
0.78 0.2 0.0
0.8 0.2 0.0
0.8200000000000001 0.2 0.0
0.84 0.2 0.0
0.86 0.2 0.0
0.88 0.2 0.0
0.9 0.2 0.0
0.92 0.2 0.0
0.9400000000000001 0.2 0.0
0.96 0.2 0.0
0.98 0.2 0.0
1.0 0.2 0.0
0.0 0.22 0.0
0.02 0.22 0.0
0.04 0.22 0.0
0.06 0.22 0.0
0.08 0.22 0.0
0.1 0.22 0.0
0.12 0.22 0.0
0.14 0.22 0.0
0.16 0.22 0.0
0.18 0.22 0.0
0.2 0.22 0.0
0.22 0.22 0.0
0.24 0.22 0.0
0.26 0.22 0.0
0.28 0.22 0.0
0.3 0.22 0.0
0.32 0.22 0.0
0.34 0.22 0.0
0.36 0.22 0.0
0.38 0.22 0.0
0.4 0.22 0.0
0.42 0.22 0.0
0.44 0.22 0.0
0.46 0.22 0.0
0.48 0.22 0.0
0.5 0.22 0.0
0.52 0.22 0.0
0.54 0.22 0.0
0.56 0.22 0.0
0.58 0.22 0.0
0.6 0.22 0.0
0.62 0.22 0.0
0.64 0.22 0.0
0.66 0.22 0.0
0.68 0.22 0.0
0.7000000000000001 0.22 0.0
0.72 0.22 0.0
0.74 0.22 0.0
0.76 0.22 0.0
0.78 0.22 0.0
0.8 0.22 0.0
0.8200000000000001 0.22 0.0
0.84 0.22 0.0
0.86 0.22 0.0
0.88 0.22 0.0
0.9 0.22 0.0
0.92 0.22 0.0
0.9400000000000001 0.22 0.0
0.96 0.22 0.0
0.98 0.22 0.0
1.0 0.22 0.0
0.0 0.24 0.0
0.02 0.24 0.0
0.04 0.24 0.0
0.06 0.24 0.0
0.08 0.24 0.0
0.1 0.24 0.0
0.12 0.24 0.0
0.14 0.24 0.0
0.16 0.24 0.0
0.18 0.24 0.0
0.2 0.24 0.0
0.22 0.24 0.0
0.24 0.24 0.0
0.26 0.24 0.0
0.28 0.24 0.0
0.3 0.24 0.0
0.32 0.24 0.0
0.34 0.24 0.0
0.36 0.24 0.0
0.38 0.24 0.0
0.4 0.24 0.0
0.42 0.24 0.0
0.44 0.24 0.0
0.46 0.24 0.0
0.48 0.24 0.0
0.5 0.24 0.0
0.52 0.24 0.0
0.54 0.24 0.0
0.56 0.24 0.0
0.58 0.24 0.0
0.6 0.24 0.0
0.62 0.24 0.0
0.64 0.24 0.0
0.66 0.24 0.0
0.68 0.24 0.0
0.7000000000000001 0.24 0.0
0.72 0.24 0.0
0.74 0.24 0.0
0.76 0.24 0.0
0.78 0.24 0.0
0.8 0.24 0.0
0.8200000000000001 0.24 0.0
0.84 0.24 0.0
0.86 0.24 0.0
0.88 0.24 0.0
0.9 0.24 0.0
0.92 0.24 0.0
0.9400000000000001 0.24 0.0
0.96 0.24 0.0
0.98 0.24 0.0
1.0 0.24 0.0
0.0 0.26 0.0
0.02 0.26 0.0
0.04 0.26 0.0
0.06 0.26 0.0
0.08 0.26 0.0
0.1 0.26 0.0
0.12 0.26 0.0
0.14 0.26 0.0
0.16 0.26 0.0
0.18 0.26 0.0
0.2 0.26 0.0
0.22 0.26 0.0
0.24 0.26 0.0
0.26 0.26 0.0
0.28 0.26 0.0
0.3 0.26 0.0
0.32 0.26 0.0
0.34 0.26 0.0
0.36 0.26 0.0
0.38 0.26 0.0
0.4 0.26 0.0
0.42 0.26 0.0
0.44 0.26 0.0
0.46 0.26 0.0
0.48 0.26 0.0
[...]
CELL_DATA 2500
SCALARS u float 1
LOOKUP_TABLE u_cell_table
-0.0006274405828520209 -0.00020165317466506457 0.00015706069338978774 0.00029319523884880586 0.000232666040693109 2.5326698005663896e-05 -0.0002863900228046482 -0.0006711528177415486 -0.0011024894187362448 -0.0015528506292212555 -0.001994263511701725 -0.002404758605677927 -0.0027742938596222533 -0.0031052645062386894 -0.003407508045345072 -0.003691414383801756 -0.003962960360877292 -0.004222336967740704 -0.004465385740568233 -0.004686096282027932 -0.004878619446935949 -0.0050382782448251655 -0.005161617501306025 -0.00524605797479777 -0.005289430825331415 -0.005289794304686068 -0.005245382768134939 -0.0051548676618436914 -0.00501757740343533 -0.004833890971325379 -0.004605363981170837 -0.00433489318631671 -0.004026491774814043 -0.003685233644296953 -0.0033170221329738223 -0.002928767651883759 -0.0025283092753538576 -0.002124457055793664 -0.0017264987054612206 -0.0013438875780327404 -0.0009856915776614598 -0.0006603656690541391 -0.0003749580936487949 -0.00013395269401096914 6.317122481536123e-05 0.00022758860373894534 0.000394034550281768 0.0006528952624618447 0.0011982185411447603 0.0 -0.00028005497007011024 -0.00018996487928181732 -0.00016691160207141361 -0.00035132131053704116 -0.0007500116468624767 -0.0013272098953325362 -0.002049209429475948 -0.002886331406288007 -0.00380795894773677 -0.004779999762211641 -0.005768454529010779 -0.006745828546357849 -0.007695303336065465 -0.008609914199111288 -0.009488023858170614 -0.010328164734706397 -0.011125924948545708 -0.011873314813016365 -0.012559972886486259 -0.01317467189941824 -0.013706666439555393 -0.014146188750673612 -0.014484783543507903 -0.014715053118493578 -0.014830829250500253 -0.014826922950721202 -0.014699614863713956 -0.014446580799889051 -0.01406771455051472 -0.013565089119774356 -0.012943826391340793 -0.012211680190365021 -0.011379579893837645 -0.010460778858447069 -0.009471380102276931 -0.008429520456464869 -0.007355949571341383 -0.006272852175561516 -0.005203880845121119 -0.0041725236388173 -0.0032019388127735764 -0.002313263258493613 -0.0015248843379581489 -0.0008499314804354863 -0.00029490547148027565 0.00014216486146350103 0.0004684513012685046 0.0006740298207532883 0.000648320362861931 0.0 0.00026876491766604765 -3.846663075333522e-05 -0.000537953416076678 -0.0011987507259559702 -0.002021233039963092 -0.0029942461285060694 -0.00410357302642709 -0.005330254060384582 -0.006648246732005841 -0.00802829573884815 -0.009443876678423826 -0.010874287456820841 -0.012303481131019698 -0.013716814215753916 -0.015098401919046002 -0.016430603729889144 -0.017694947199064313 -0.018873505300229635 -0.01994951374592633 -0.020907583216537354 -0.021733325890169006 -0.022413438143902453 -0.022935528720977327 -0.023288667063193977 -0.023463330562595735 -0.023452149672046528 -0.023249753240319974 -0.022853728966737052 -0.022264448336261487 -0.021486258614442564 -0.020527065970947857 -0.019399374894645074 -0.01811931639385824 -0.01670749924846432 -0.015187794475551696 -0.013588218872296332 -0.011939372933393538 -0.010274842778220637 -0.008629027709518938 -0.007037173529764593 -0.00553310831017235 -0.004149026380555348 -0.0029129084887824412 -0.0018480335828279185 -0.0009717286820473854 -0.00029794067746562153 0.00015820681716969596 0.00036831338403184213 0.0002920843020203239 0.0 0.00026188083110510534 -0.00032566654562881346 -0.0011757211346947122 -0.002160210729938583 -0.003285686115077442 -0.004567246010967715 -0.006004347530404322 -0.007580402824218229 -0.00926890770199601 -0.011041996930998284 -0.012875447575127569 -0.014747677058314625 -0.01663594192234431 -0.018513828093231134 -0.020352056094206893 -0.02212118968653732 -0.023794336154052454 -0.02534798939235933 -0.026761691598577487 -0.028016737835116032 -0.02909568362032565 -0.02998182010253355 -0.03065985785029945 -0.031115870844822695 -0.03133833710180483 -0.03131785304936924 -0.0310483674155987 -0.030526765441672238 -0.029754488918265265 -0.02873693461114046 -0.027485159338876228 -0.026014667443707853 -0.02434690456974969 -0.02250752460883119 -0.020527914118379457 -0.018443094966850617 -0.016292894721376044 -0.014119108877069759 -0.011966134761236511 -0.00987786891509498 -0.0078981964797765 -0.006067797410670771 -0.004424171794016929 -0.0029989877545362723 -0.001819397913257055 -0.000907745626611724 -0.00028292858986607395 4.4128194203640645e-05 9.491657450969352e-05 0.0 -0.0002383427574596399 -0.0009210606386995845 -0.0018847506873690407 -0.0030296647259450303 -0.004366254490026061 -0.005914334925775798 -0.007666794182629386 -0.009595976174032942 -0.01166747062031072 -0.013849098327221514 -0.016111704411138215 -0.01842516408520404 -0.020755050667478955 -0.023063315279014465 -0.025311763815574505 -0.027465783777095094 -0.02949568574980506 -0.031376193781241735 -0.033084524234952756 -0.034599379336583205 -0.03590006597390504 -0.0369671857928021 -0.03778250838796912 -0.03833017419310167 -0.0385962716805867 -0.03857027900263599 -0.038244444979401285 -0.03761577227963538 -0.03668524457042835 -0.03546015326746697 -0.03395271522736394 -0.03218228040402175 -0.030173157802323214 -0.027956815574044946 -0.025569254086494433 -0.023053092100395054 -0.02045416188896381 -0.017822985663204612 -0.015210788746117629 -0.012670711215258427 -0.010253802432035282 -0.008009797809436826 -0.005983051398116208 -0.004213397944473955 -0.002733596088823584 -0.0015700068870359112 -0.0007378924073918261 -0.00023480355685282184 -2.1819917151896952e-05 0.0 -0.0007507601872512556 -0.001400721500066487 -0.002361167193680692 -0.003628867695957094 -0.005197903455994863 -0.007056589320389977 -0.009169326706231586 -0.01148846965645171 -0.013968613023024786 -0.016570491842439052 -0.019256949222282913 -0.021988033362487586 -0.024720300308271523 -0.027409918921757682 -0.030016817658337146 -0.032506468454801166 -0.03484946029000566 -0.03701924483969457 -0.03899082955187615 -0.04073964086363684 -0.042242260130638025 -0.0434761788932775 -0.04442111455565307 -0.04505835678251263 -0.04537241446572542 -0.0453501310507699 -0.04498306708734124 -0.0442664409781185 -0.043202117783393286 -0.041796934439033734 -0.040065803317517225 -0.03802904065128194 -0.03571546507133606 -0.03315903636072666 -0.030402095199675155 -0.02749125792794789 -0.024480167017130246 -0.021424499733004736 -0.018384245020813185 -0.015418490717169138 -0.012587345282793991 -0.009946570960993446 -0.007548846036739455 -0.005439079771399884 -0.003655865376628969 -0.0022267755796794636 -0.0011663321901172732 -0.0004684331389342263 -0.00010025853142672065 0.0 -0.0008432348905212841 -0.0014931792999002343 -0.00253176249001575 -0.0040182055117198995 -0.005911462646988611 -0.008149043253585744 -0.010661936613340176 -0.01338673024268066 -0.016271620258905245 -0.019272670217886177 -0.022346758614067506 -0.02544841410656965 -0.028531489744825913 -0.03155303222691402 -0.03447529484878528 -0.037265517104861805 -0.03989362516666088 -0.042330883046914985 -0.04454871567494896 -0.04651959641252645 -0.04821673229068175 -0.04961542744286251 -0.05069212211263819 -0.05142615581285533 -0.05179858402243887 -0.05179493832223632 -0.05140383554521372 -0.050620588325297776 -0.0494451370042865 -0.04788608681116838 -0.04595752464161542 -0.04368320373953057 -0.04109235150508121 -0.038224197688827 -0.03512302810597647 -0.03184255422450559 -0.02843985883036721 -0.024979170350900172 -0.021525195125632664 -0.01814646354997656 -0.014908504490748199 -0.011876342771597844 -0.009107796088031358 -0.006655562121275921 -0.004561640080976844 -0.0028581077948254875 -0.001560633465924445 -0.000668012216294237 -0.00015925140909007584 0.0 -0.000489379696189963 -0.0012874119045237845 -0.002590580084335219 -0.004422399182753143 -0.006704432085125272 -0.009336456971645219 -0.012232813763939674 -0.015328579759990791 -0.01857391336378873 -0.021924385984616043 -0.02533481563539108 -0.02875890027917292 -0.03215241417919086 -0.035475341221568195 -0.03869194393455182 -0.041768605810028614 -0.04467262787328471 -0.04737118880441597 -0.04983250609985842 -0.052025526612068405 -0.053921312119386236 -0.05549168267765824 -0.05671098172358161 -0.05755450979085474 -0.05800163729557476 -0.05803402805474811 -0.057639854273917504 -0.056811195420296466 -0.05554900895236955 -0.05385932187379361 -0.051758702077971355 -0.04926915658685717 -0.046424152571545446 -0.04326259174652085 -0.03983514114781403 -0.036196979008088076 -0.032413596615595994 -0.028552482013970336 -0.024688337646375853 -0.02089438476102536 -0.01724675577040951 -0.013815670190115942 -0.010668875895264489 -0.00786376437097123 -0.005450243608900548 -0.0034638147943310735 -0.0019267573288167718 -0.0008440208820134955 -0.00020765629735564924 0.0 -5.77804012002075e-05 -0.0011230680586822544 -0.0028052918153318217 -0.005017475997085536 -0.007657909899525154 -0.01062239678178759 -0.013833233767599927 -0.017236236009586445 -0.02078710249764585 -0.0244416357756933 -0.02815339799019905 -0.031876449832821466 -0.03556787657635517 -0.03918834614428129 -0.04270020267897191 -0.046066428488955105 -0.049249769344146696 -0.052214184347216704 -0.05492458853759221 -0.05734823079362595 -0.059452881400759945 -0.06120845925794895 -0.062584990582206 -0.0635560052495531 -0.06409635075339744 -0.06418698001696001 -0.06381171425961688 -0.06296308247590231 -0.061637737020689004 -0.05984330409270258 -0.057592325706089284 -0.054910004780586025 -0.051826893452042395 -0.048387436621537154 -0.0446413454587229 -0.04065194515132966 -0.03648604285983061 -0.032221624821684294 -0.027936903058858688 -0.02371714898120696 -0.019643470619272248 -0.01579834026042638 -0.012254951647610784 -0.009081830995333976 -0.0063338167114293294 -0.004055628841483631 -0.0022747854454081124 -0.0010058763676938727 -0.00024989548371077627 0.0 4.012549763787401e-05 -0.00127814968091099 -0.0032804985866517126 -0.005780285460404193 -0.008672310078476296 -0.011875486545223824 -0.015332444187144792 -0.018998637695837893 -0.02282956041747604 -0.026776271244131702 -0.030788267871514723 -0.03481714889229669 -0.038818117109823344 -0.04274842077105558 -0.04656631433750309 -0.05023015302228604 -0.05369996932807391 -0.056937221742911034 -0.059906108313861124 -0.06257126372546531 -0.06489912126395464 -0.06685531545519062 -0.06840826891984368 -0.0695265914982431 -0.07018440934077405 -0.07035742989692007 -0.07002955787730643 -0.06918736577722746 -0.06782830612020932 -0.06595360720651004 -0.06357795817999187 -0.06072077125691847 -0.05741714127956935 -0.05370759557165062 -0.04964946428964113 -0.045304756117222886 -0.04075099477498756 -0.0360677498639441 -0.03134654295985029 -0.026676775389818864 -0.02215420352748069 -0.017867011218541704 -0.01390283276115813 -0.010336346205225838 -0.0072350892372603955 -0.004649538193723761 -0.0026179701440250695 -0.0011611718867416737 -0.00028926117472036336 0.0 -0.00028837958384334337 -0.0017311920676745596 -0.003876841794491788 -0.006521393457776777 -0.009568080318931277 -0.012958914220876474 -0.016646700829032652 -0.020582241885006493 -0.02470942543697212 -0.02896853586242292 -0.033301655834992366 -0.03765569994046331 -0.041981360501780834 -0.046231791556437245 -0.050361283116038776 -0.05432662771174344 -0.05808673024785436 -0.061603765878327686 -0.06484038004823672 -0.06776068805331195 -0.07032708221875196 -0.07250390754164619 -0.07425446645669012 -0.07554684860070641 -0.07634929161382027 -0.07663745904275679 -0.07638781969640618 -0.07558710160872076 -0.07422400577364488 -0.07230093527542888 -0.06982374988922817 -0.06681531635739425 -0.06330335105270093 -0.05933514865615412 -0.054963292507252404 -0.05026026423198475 -0.04530225005171001 -0.04018292086493112 -0.03499609398603145 -0.029847976452044074 -0.024839573871073415 -0.020076920418868598 -0.015654577328522004 -0.011664082565004463 -0.008179989064386214 -0.005266842774015795 -0.002969115796176007 -0.0013180000916139364 -0.0003278104587299452 0.0 -0.0007584243800088337 -0.002199661636977871 -0.004348980344764818 -0.0070643087564031416 -0.010254475217164426 -0.013859968402231585 -0.017820335640690892 -0.02206577303137111 -0.026521732131363576 -0.031116431525577783 -0.03578561101710423 -0.04047202292756607 -0.04512351514410016 -0.04969081419420695 -0.05412827432741389 -0.05839318517794981 -0.0624467013423116 -0.06625058587590092 -0.06976778776372868 -0.07295866117118494 -0.07578462964203203 -0.07820484230084704 -0.08018244727556696 -0.08167929540852902 -0.08266374856397038 -0.08310286756390364 -0.0829729058841841 -0.0822496884748172 -0.08092233394373113 -0.07898142443059183 -0.07643526091953695 -0.073295559210611 -0.06959569311322107 -0.06537401369511628 -0.06069279148326983 -0.05561912067141519 -0.05024337178884992 -0.044658373805442755 -0.03897628987277528 -0.033306968481816863 -0.02777245362328131 -0.022485762459810647 -0.017562844935545267 -0.013103561053302973 -0.009201441870356753 -0.005928554159281046 -0.0033436829033188465 -0.0014830404594476127 -0.00036815801025230426 0.0 -0.0009848780286583361 -0.0024075201138025765 -0.004570759317608206 -0.0074041000104432 -0.010809660099788105 -0.014700215103033409 -0.018985121651890143 -0.023570059810880915 -0.028365755087058783 -0.033294605893725286 -0.038290583531855694 -0.043296299204669465 -0.048259396232012045 -0.053132302021578315 -0.05787116488388234 -0.06243661032588408 -0.06679017725637504 -0.07089446884759079 -0.07470882087316012 -0.07819284194882466 -0.0813027757851648 -0.08399813519652403 -0.08623583745643301 -0.08797839633074539 -0.08918487880686324 -0.08982217370854963 -0.08985390142234069 -0.08925593071488985 -0.08800287228995471 -0.08608702216992029 -0.08350174723880831 -0.08026324930087128 -0.0763912003309792 -0.07193237057809802 -0.06693850628575304 -0.0614901374802301 -0.055672155467129315 -0.04959630146215245 -0.043375185452209655 -0.03714215782704896 -0.03102505063559686 -0.02516269779305365 -0.019680166789643353 -0.014702067465973488 -0.010331469534536779 -0.006660606840284398 -0.00375541421364978 -0.0016646583267120527 -0.0004118526730834604 0.0 -0.0008329258149011834 -0.0023295168205185327 -0.004638539447841407 -0.007701197637881843 -0.011402925260685185 -0.015622330910811154 -0.02024158546753727 -0.02515249269213846 -0.030263184712636976 -0.03549845927917485 -0.04079571237204027 -0.046099556756994384 -0.05136025734142058 -0.0565323396194852 -0.061575407299373275 -0.06645058841286486 -0.07112034296302862 -0.07554363030015891 -0.07967916988823713 -0.08348153938898312 -0.08690804665826143 -0.0899124151088684 -0.0924531993882721 -0.09448354147659752 -0.09596290754771283 -0.09684444474317283 -0.09709197449268799 -0.09666473049472155 -0.09553880523853225 -0.09368812178331268 -0.09110958872856828 -0.08780076250133573 -0.0837882093528115 -0.07910220978815678 -0.07380643068235641 -0.06796980714117373 -0.06169551034438724 -0.05509062251043546 -0.04829244549817206 -0.0414370755462861 -0.03468176491085384 -0.02817403125333168 -0.022069633659411447 -0.016504574623431134 -0.01160937520378989 -0.007486480001459966 -0.00422171858456045 -0.0018694032813224367 -0.000461695560812352 0.0 -0.0005175738679582588 -0.0021915467034054055 -0.004766774327720591 -0.00812699950270101 -0.0121395446536627 -0.016664451679813824 -0.02157491721780028 -0.02676530268879536 -0.032150996511295875 -0.03766339105078109 -0.04324294004110652 -0.048836225177930064 -0.05439435737634352 -0.05987418997975534 -0.06523522062896893 -0.07043922827476977 -0.07544498744827326 -0.0802110248531734 -0.08469141776178706 -0.08884273031350765 -0.09261739005199812 -0.09597216914555755 -0.098856847626327 -0.10122609602308484 -0.10302527082994557 -0.10420848184648714 -0.10472154505921856 -0.10452559555977352 -0.10357559960546708 -0.10184861712884083 -0.09931827342650752 -0.09598761260831874 -0.0918603952749294 -0.0869768296475506 -0.0813817051141572 -0.0751604255014961 -0.06840443286518759 -0.061245007465397475 -0.05381678785879488 -0.04628728081762899 -0.03881990529717577 -0.0315979840622383 -0.024789482543186143 -0.018565655018465486 -0.013070613634911929 -0.008435781323939191 -0.004757071981798488 -0.0021065286336593987 -0.0005190242169514167 0.0 -0.00037669666131496713 -0.002244786629240311 -0.005086722874807949 -0.008711682501609197 -0.01297435241191058 -0.017736988596673987 -0.022881184597065857 -0.028311773675001844 -0.03395186531160992 -0.0397348324470392 -0.045600371572139385 -0.051492946066662354 -0.057363724137674425 -0.06316839490171838 -0.06886684888862148 -0.07441746776575597 -0.07977907152919538 -0.08490628388069217 -0.08975629711361081 -0.09428210091420458 -0.0984409037582044 -0.10218190287554652 -0.10545800291565088 -0.10821013422696468 -0.11038594541549371 -0.11192102296210892 -0.11276421911122365 -0.11285374117351955 -0.11214808715614576 -0.11059721235632547 -0.10817939637482972 -0.10486885636210964 -0.10067730525108118 -0.09561824019842212 -0.08975027246322316 -0.08313837461561531 -0.0758959373916594 -0.06814359614984947 -0.06004709725327497 -0.051774743500293534 -0.04352887876263987 -0.035503649494845906 -0.027909371509061448 -0.020933545802664526 -0.01475933935778869 -0.009533559688396998 -0.00538099327975726 -0.0023826716817495278 -0.000587069398962506 0.0 -0.0005521633832810211 -0.0025369318346331465 -0.005537608433016125 -0.009332210071646068 -0.01376822159713962 -0.01871780936383394 -0.024072742370694657 -0.02974298560105539 -0.03564981925790735 -0.04172135513535049 -0.04789111223763792 -0.05410082716035541 -0.06029953267683676 -0.06644350710245601 -0.07249017763099506 -0.07839891314125547 -0.0841257227870404 -0.08962954207966363 -0.09486547800635288 -0.0997931066997794 -0.10436366048548792 -0.10853132037380293 -0.11223623616222211 -0.11542338263557438 -0.11802220002927939 -0.11997311346251291 -0.12120134517531805 -0.12164997270751152 -0.12124780928361698 -0.1199496268679611 -0.11769985072914096 -0.11447930874863918 -0.11026546307832961 -0.10508281081404171 -0.0989599595088528 -0.09198021412908099 -0.08423609073787611 -0.07587647710005314 -0.06705923465358464 -0.05799167095912521 -0.048882195122659254 -0.039972077384312216 -0.0314884035391059 -0.023667365878286224 -0.016712663912392116 -0.010812648762765718 -0.006108585363621097 -0.002708260445085741 -0.000667009530703875 0.0 -0.0008786546677146864 -0.002889840308304209 -0.0059432091329930156 -0.00984167647008344 -0.014426271191654787 -0.019568824599525348 -0.025159271823236122 -0.031099660538777656 -0.03730064763646631 -0.043680198185425505 -0.05016682951209745 -0.05669990817397643 -0.06323003560134398 -0.06971269674730611 -0.07610764973801074 -0.08237270031622326 -0.08846914676842625 -0.09435517213993184 -0.09999401284340084 -0.10534098604486425 -0.11035417735279737 -0.11497642781443292 -0.11915389723782538 -0.12281438389370977 -0.1258944857771559 -0.1283114058651573 -0.1299975075766722 -0.13086509452507963 -0.13084922437466615 -0.1298673827245607 -0.1278704931100527 -0.12479880449236598 -0.12063863493457438 -0.1153751442518796 -0.10905115435989905 -0.10171754460412379 -0.0934900888318718 -0.08449800650002119 -0.07493462927703734 -0.06500436087353034 -0.054963568176453384 -0.04506697537525718 -0.03559748179048071 -0.026815140006050075 -0.018977960172629142 -0.012298916803424879 -0.0069614918444836135 -0.0030900990340548035 -0.0007626141203328951 0.0 -0.0010669358424564824 -0.0030885511536234375 -0.0061878761727353565 -0.010208059537359673 -0.014980702552467397 -0.020362696855778205 -0.026228695862313942 -0.032465726198528375 -0.03897174781638937 -0.04565877458334954 -0.05245379005942535 -0.05929946683371501 -0.066147771354865 -0.07295794354043664 -0.07968921708864132 -0.08630508079702737 -0.09276688414352852 -0.09904188863679017 -0.10509063462576301 -0.11087695325871882 -0.1163492592152587 -0.1214583742914172 -0.12613486008611371 -0.13031628334418885 -0.13391741907215568 -0.13686564349293773 -0.13906297635518397 -0.140430688250018 -0.14086507204800364 -0.14029163504394818 -0.13861639650493596 -0.13578782902831962 -0.1317450475612393 -0.1264839969434596 -0.12000363951265171 -0.11237210939479488 -0.10367170717937818 -0.09406030760935515 -