# vtk DataFile Version 3.0
vtk output
ASCII
DATASET STRUCTURED_GRID
DIMENSIONS 51 51 1
POINTS 2601 float
0.0 0.0 0.0
0.02 0.0 0.0
0.04 0.0 0.0
0.06 0.0 0.0
0.08 0.0 0.0
0.1 0.0 0.0
0.12 0.0 0.0
0.14 0.0 0.0
0.16 0.0 0.0
0.18 0.0 0.0
0.2 0.0 0.0
0.22 0.0 0.0
0.24 0.0 0.0
0.26 0.0 0.0
0.28 0.0 0.0
0.3 0.0 0.0
0.32 0.0 0.0
0.34 0.0 0.0
0.36 0.0 0.0
0.38 0.0 0.0
0.4 0.0 0.0
0.42 0.0 0.0
0.44 0.0 0.0
0.46 0.0 0.0
0.48 0.0 0.0
0.5 0.0 0.0
0.52 0.0 0.0
0.54 0.0 0.0
0.56 0.0 0.0
0.58 0.0 0.0
0.6 0.0 0.0
0.62 0.0 0.0
0.64 0.0 0.0
0.66 0.0 0.0
0.68 0.0 0.0
0.7000000000000001 0.0 0.0
0.72 0.0 0.0
0.74 0.0 0.0
0.76 0.0 0.0
0.78 0.0 0.0
0.8 0.0 0.0
0.8200000000000001 0.0 0.0
0.84 0.0 0.0
0.86 0.0 0.0
0.88 0.0 0.0
0.9 0.0 0.0
0.92 0.0 0.0
0.9400000000000001 0.0 0.0
0.96 0.0 0.0
0.98 0.0 0.0
1.0 0.0 0.0
0.0 0.02 0.0
0.02 0.02 0.0
0.04 0.02 0.0
0.06 0.02 0.0
0.08 0.02 0.0
0.1 0.02 0.0
0.12 0.02 0.0
0.14 0.02 0.0
0.16 0.02 0.0
0.18 0.02 0.0
0.2 0.02 0.0
0.22 0.02 0.0
0.24 0.02 0.0
0.26 0.02 0.0
0.28 0.02 0.0
0.3 0.02 0.0
0.32 0.02 0.0
0.34 0.02 0.0
0.36 0.02 0.0
0.38 0.02 0.0
0.4 0.02 0.0
0.42 0.02 0.0
0.44 0.02 0.0
0.46 0.02 0.0
0.48 0.02 0.0
0.5 0.02 0.0
0.52 0.02 0.0
0.54 0.02 0.0
0.56 0.02 0.0
0.58 0.02 0.0
0.6 0.02 0.0
0.62 0.02 0.0
0.64 0.02 0.0
0.66 0.02 0.0
0.68 0.02 0.0
0.7000000000000001 0.02 0.0
0.72 0.02 0.0
0.74 0.02 0.0
0.76 0.02 0.0
0.78 0.02 0.0
0.8 0.02 0.0
0.8200000000000001 0.02 0.0
0.84 0.02 0.0
0.86 0.02 0.0
0.88 0.02 0.0
0.9 0.02 0.0
0.92 0.02 0.0
0.9400000000000001 0.02 0.0
0.96 0.02 0.0
0.98 0.02 0.0
1.0 0.02 0.0
0.0 0.04 0.0
0.02 0.04 0.0
0.04 0.04 0.0
0.06 0.04 0.0
0.08 0.04 0.0
0.1 0.04 0.0
0.12 0.04 0.0
0.14 0.04 0.0
0.16 0.04 0.0
0.18 0.04 0.0
0.2 0.04 0.0
0.22 0.04 0.0
0.24 0.04 0.0
0.26 0.04 0.0
0.28 0.04 0.0
0.3 0.04 0.0
0.32 0.04 0.0
0.34 0.04 0.0
0.36 0.04 0.0
0.38 0.04 0.0
0.4 0.04 0.0
0.42 0.04 0.0
0.44 0.04 0.0
0.46 0.04 0.0
0.48 0.04 0.0
0.5 0.04 0.0
0.52 0.04 0.0
0.54 0.04 0.0
0.56 0.04 0.0
0.58 0.04 0.0
0.6 0.04 0.0
0.62 0.04 0.0
0.64 0.04 0.0
0.66 0.04 0.0
0.68 0.04 0.0
0.7000000000000001 0.04 0.0
0.72 0.04 0.0
0.74 0.04 0.0
0.76 0.04 0.0
0.78 0.04 0.0
0.8 0.04 0.0
0.8200000000000001 0.04 0.0
0.84 0.04 0.0
0.86 0.04 0.0
0.88 0.04 0.0
0.9 0.04 0.0
0.92 0.04 0.0
0.9400000000000001 0.04 0.0
0.96 0.04 0.0
0.98 0.04 0.0
1.0 0.04 0.0
0.0 0.06 0.0
0.02 0.06 0.0
0.04 0.06 0.0
0.06 0.06 0.0
0.08 0.06 0.0
0.1 0.06 0.0
0.12 0.06 0.0
0.14 0.06 0.0
0.16 0.06 0.0
0.18 0.06 0.0
0.2 0.06 0.0
0.22 0.06 0.0
0.24 0.06 0.0
0.26 0.06 0.0
0.28 0.06 0.0
0.3 0.06 0.0
0.32 0.06 0.0
0.34 0.06 0.0
0.36 0.06 0.0
0.38 0.06 0.0
0.4 0.06 0.0
0.42 0.06 0.0
0.44 0.06 0.0
0.46 0.06 0.0
0.48 0.06 0.0
0.5 0.06 0.0
0.52 0.06 0.0
0.54 0.06 0.0
0.56 0.06 0.0
0.58 0.06 0.0
0.6 0.06 0.0
0.62 0.06 0.0
0.64 0.06 0.0
0.66 0.06 0.0
0.68 0.06 0.0
0.7000000000000001 0.06 0.0
0.72 0.06 0.0
0.74 0.06 0.0
0.76 0.06 0.0
0.78 0.06 0.0
0.8 0.06 0.0
0.8200000000000001 0.06 0.0
0.84 0.06 0.0
0.86 0.06 0.0
0.88 0.06 0.0
0.9 0.06 0.0
0.92 0.06 0.0
0.9400000000000001 0.06 0.0
0.96 0.06 0.0
0.98 0.06 0.0
1.0 0.06 0.0
0.0 0.08 0.0
0.02 0.08 0.0
0.04 0.08 0.0
0.06 0.08 0.0
0.08 0.08 0.0
0.1 0.08 0.0
0.12 0.08 0.0
0.14 0.08 0.0
0.16 0.08 0.0
0.18 0.08 0.0
0.2 0.08 0.0
0.22 0.08 0.0
0.24 0.08 0.0
0.26 0.08 0.0
0.28 0.08 0.0
0.3 0.08 0.0
0.32 0.08 0.0
0.34 0.08 0.0
0.36 0.08 0.0
0.38 0.08 0.0
0.4 0.08 0.0
0.42 0.08 0.0
0.44 0.08 0.0
0.46 0.08 0.0
0.48 0.08 0.0
0.5 0.08 0.0
0.52 0.08 0.0
0.54 0.08 0.0
0.56 0.08 0.0
0.58 0.08 0.0
0.6 0.08 0.0
0.62 0.08 0.0
0.64 0.08 0.0
0.66 0.08 0.0
0.68 0.08 0.0
0.7000000000000001 0.08 0.0
0.72 0.08 0.0
0.74 0.08 0.0
0.76 0.08 0.0
0.78 0.08 0.0
0.8 0.08 0.0
0.8200000000000001 0.08 0.0
0.84 0.08 0.0
0.86 0.08 0.0
0.88 0.08 0.0
0.9 0.08 0.0
0.92 0.08 0.0
0.9400000000000001 0.08 0.0
0.96 0.08 0.0
0.98 0.08 0.0
1.0 0.08 0.0
0.0 0.1 0.0
0.02 0.1 0.0
0.04 0.1 0.0
0.06 0.1 0.0
0.08 0.1 0.0
0.1 0.1 0.0
0.12 0.1 0.0
0.14 0.1 0.0
0.16 0.1 0.0
0.18 0.1 0.0
0.2 0.1 0.0
0.22 0.1 0.0
0.24 0.1 0.0
0.26 0.1 0.0
0.28 0.1 0.0
0.3 0.1 0.0
0.32 0.1 0.0
0.34 0.1 0.0
0.36 0.1 0.0
0.38 0.1 0.0
0.4 0.1 0.0
0.42 0.1 0.0
0.44 0.1 0.0
0.46 0.1 0.0
0.48 0.1 0.0
0.5 0.1 0.0
0.52 0.1 0.0
0.54 0.1 0.0
0.56 0.1 0.0
0.58 0.1 0.0
0.6 0.1 0.0
0.62 0.1 0.0
0.64 0.1 0.0
0.66 0.1 0.0
0.68 0.1 0.0
0.7000000000000001 0.1 0.0
0.72 0.1 0.0
0.74 0.1 0.0
0.76 0.1 0.0
0.78 0.1 0.0
0.8 0.1 0.0
0.8200000000000001 0.1 0.0
0.84 0.1 0.0
0.86 0.1 0.0
0.88 0.1 0.0
0.9 0.1 0.0
0.92 0.1 0.0
0.9400000000000001 0.1 0.0
0.96 0.1 0.0
0.98 0.1 0.0
1.0 0.1 0.0
0.0 0.12 0.0
0.02 0.12 0.0
0.04 0.12 0.0
0.06 0.12 0.0
0.08 0.12 0.0
0.1 0.12 0.0
0.12 0.12 0.0
0.14 0.12 0.0
0.16 0.12 0.0
0.18 0.12 0.0
0.2 0.12 0.0
0.22 0.12 0.0
0.24 0.12 0.0
0.26 0.12 0.0
0.28 0.12 0.0
0.3 0.12 0.0
0.32 0.12 0.0
0.34 0.12 0.0
0.36 0.12 0.0
0.38 0.12 0.0
0.4 0.12 0.0
0.42 0.12 0.0
0.44 0.12 0.0
0.46 0.12 0.0
0.48 0.12 0.0
0.5 0.12 0.0
0.52 0.12 0.0
0.54 0.12 0.0
0.56 0.12 0.0
0.58 0.12 0.0
0.6 0.12 0.0
0.62 0.12 0.0
0.64 0.12 0.0
0.66 0.12 0.0
0.68 0.12 0.0
0.7000000000000001 0.12 0.0
0.72 0.12 0.0
0.74 0.12 0.0
0.76 0.12 0.0
0.78 0.12 0.0
0.8 0.12 0.0
0.8200000000000001 0.12 0.0
0.84 0.12 0.0
0.86 0.12 0.0
0.88 0.12 0.0
0.9 0.12 0.0
0.92 0.12 0.0
0.9400000000000001 0.12 0.0
0.96 0.12 0.0
0.98 0.12 0.0
1.0 0.12 0.0
0.0 0.14 0.0
0.02 0.14 0.0
0.04 0.14 0.0
0.06 0.14 0.0
0.08 0.14 0.0
0.1 0.14 0.0
0.12 0.14 0.0
0.14 0.14 0.0
0.16 0.14 0.0
0.18 0.14 0.0
0.2 0.14 0.0
0.22 0.14 0.0
0.24 0.14 0.0
0.26 0.14 0.0
0.28 0.14 0.0
0.3 0.14 0.0
0.32 0.14 0.0
0.34 0.14 0.0
0.36 0.14 0.0
0.38 0.14 0.0
0.4 0.14 0.0
0.42 0.14 0.0
0.44 0.14 0.0
0.46 0.14 0.0
0.48 0.14 0.0
0.5 0.14 0.0
0.52 0.14 0.0
0.54 0.14 0.0
0.56 0.14 0.0
0.58 0.14 0.0
0.6 0.14 0.0
0.62 0.14 0.0
0.64 0.14 0.0
0.66 0.14 0.0
0.68 0.14 0.0
0.7000000000000001 0.14 0.0
0.72 0.14 0.0
0.74 0.14 0.0
0.76 0.14 0.0
0.78 0.14 0.0
0.8 0.14 0.0
0.8200000000000001 0.14 0.0
0.84 0.14 0.0
0.86 0.14 0.0
0.88 0.14 0.0
0.9 0.14 0.0
0.92 0.14 0.0
0.9400000000000001 0.14 0.0
0.96 0.14 0.0
0.98 0.14 0.0
1.0 0.14 0.0
0.0 0.16 0.0
0.02 0.16 0.0
0.04 0.16 0.0
0.06 0.16 0.0
0.08 0.16 0.0
0.1 0.16 0.0
0.12 0.16 0.0
0.14 0.16 0.0
0.16 0.16 0.0
0.18 0.16 0.0
0.2 0.16 0.0
0.22 0.16 0.0
0.24 0.16 0.0
0.26 0.16 0.0
0.28 0.16 0.0
0.3 0.16 0.0
0.32 0.16 0.0
0.34 0.16 0.0
0.36 0.16 0.0
0.38 0.16 0.0
0.4 0.16 0.0
0.42 0.16 0.0
0.44 0.16 0.0
0.46 0.16 0.0
0.48 0.16 0.0
0.5 0.16 0.0
0.52 0.16 0.0
0.54 0.16 0.0
0.56 0.16 0.0
0.58 0.16 0.0
0.6 0.16 0.0
0.62 0.16 0.0
0.64 0.16 0.0
0.66 0.16 0.0
0.68 0.16 0.0
0.7000000000000001 0.16 0.0
0.72 0.16 0.0
0.74 0.16 0.0
0.76 0.16 0.0
0.78 0.16 0.0
0.8 0.16 0.0
0.8200000000000001 0.16 0.0
0.84 0.16 0.0
0.86 0.16 0.0
0.88 0.16 0.0
0.9 0.16 0.0
0.92 0.16 0.0
0.9400000000000001 0.16 0.0
0.96 0.16 0.0
0.98 0.16 0.0
1.0 0.16 0.0
0.0 0.18 0.0
0.02 0.18 0.0
0.04 0.18 0.0
0.06 0.18 0.0
0.08 0.18 0.0
0.1 0.18 0.0
0.12 0.18 0.0
0.14 0.18 0.0
0.16 0.18 0.0
0.18 0.18 0.0
0.2 0.18 0.0
0.22 0.18 0.0
0.24 0.18 0.0
0.26 0.18 0.0
0.28 0.18 0.0
0.3 0.18 0.0
0.32 0.18 0.0
0.34 0.18 0.0
0.36 0.18 0.0
0.38 0.18 0.0
0.4 0.18 0.0
0.42 0.18 0.0
0.44 0.18 0.0
0.46 0.18 0.0
0.48 0.18 0.0
0.5 0.18 0.0
0.52 0.18 0.0
0.54 0.18 0.0
0.56 0.18 0.0
0.58 0.18 0.0
0.6 0.18 0.0
0.62 0.18 0.0
0.64 0.18 0.0
0.66 0.18 0.0
0.68 0.18 0.0
0.7000000000000001 0.18 0.0
0.72 0.18 0.0
0.74 0.18 0.0
0.76 0.18 0.0
0.78 0.18 0.0
0.8 0.18 0.0
0.8200000000000001 0.18 0.0
0.84 0.18 0.0
0.86 0.18 0.0
0.88 0.18 0.0
0.9 0.18 0.0
0.92 0.18 0.0
0.9400000000000001 0.18 0.0
0.96 0.18 0.0
0.98 0.18 0.0
1.0 0.18 0.0
0.0 0.2 0.0
0.02 0.2 0.0
0.04 0.2 0.0
0.06 0.2 0.0
0.08 0.2 0.0
0.1 0.2 0.0
0.12 0.2 0.0
0.14 0.2 0.0
0.16 0.2 0.0
0.18 0.2 0.0
0.2 0.2 0.0
0.22 0.2 0.0
0.24 0.2 0.0
0.26 0.2 0.0
0.28 0.2 0.0
0.3 0.2 0.0
0.32 0.2 0.0
0.34 0.2 0.0
0.36 0.2 0.0
0.38 0.2 0.0
0.4 0.2 0.0
0.42 0.2 0.0
0.44 0.2 0.0
0.46 0.2 0.0
0.48 0.2 0.0
0.5 0.2 0.0
0.52 0.2 0.0
0.54 0.2 0.0
0.56 0.2 0.0
0.58 0.2 0.0
0.6 0.2 0.0
0.62 0.2 0.0
0.64 0.2 0.0
0.66 0.2 0.0
0.68 0.2 0.0
0.7000000000000001 0.2 0.0
0.72 0.2 0.0
0.74 0.2 0.0
0.76 0.2 0.0
0.78 0.2 0.0
0.8 0.2 0.0
0.8200000000000001 0.2 0.0
0.84 0.2 0.0
0.86 0.2 0.0
0.88 0.2 0.0
0.9 0.2 0.0
0.92 0.2 0.0
0.9400000000000001 0.2 0.0
0.96 0.2 0.0
0.98 0.2 0.0
1.0 0.2 0.0
0.0 0.22 0.0
0.02 0.22 0.0
0.04 0.22 0.0
0.06 0.22 0.0
0.08 0.22 0.0
0.1 0.22 0.0
0.12 0.22 0.0
0.14 0.22 0.0
0.16 0.22 0.0
0.18 0.22 0.0
0.2 0.22 0.0
0.22 0.22 0.0
0.24 0.22 0.0
0.26 0.22 0.0
0.28 0.22 0.0
0.3 0.22 0.0
0.32 0.22 0.0
0.34 0.22 0.0
0.36 0.22 0.0
0.38 0.22 0.0
0.4 0.22 0.0
0.42 0.22 0.0
0.44 0.22 0.0
0.46 0.22 0.0
0.48 0.22 0.0
0.5 0.22 0.0
0.52 0.22 0.0
0.54 0.22 0.0
0.56 0.22 0.0
0.58 0.22 0.0
0.6 0.22 0.0
0.62 0.22 0.0
0.64 0.22 0.0
0.66 0.22 0.0
0.68 0.22 0.0
0.7000000000000001 0.22 0.0
0.72 0.22 0.0
0.74 0.22 0.0
0.76 0.22 0.0
0.78 0.22 0.0
0.8 0.22 0.0
0.8200000000000001 0.22 0.0
0.84 0.22 0.0
0.86 0.22 0.0
0.88 0.22 0.0
0.9 0.22 0.0
0.92 0.22 0.0
0.9400000000000001 0.22 0.0
0.96 0.22 0.0
0.98 0.22 0.0
1.0 0.22 0.0
0.0 0.24 0.0
0.02 0.24 0.0
0.04 0.24 0.0
0.06 0.24 0.0
0.08 0.24 0.0
0.1 0.24 0.0
0.12 0.24 0.0
0.14 0.24 0.0
0.16 0.24 0.0
0.18 0.24 0.0
0.2 0.24 0.0
0.22 0.24 0.0
0.24 0.24 0.0
0.26 0.24 0.0
0.28 0.24 0.0
0.3 0.24 0.0
0.32 0.24 0.0
0.34 0.24 0.0
0.36 0.24 0.0
0.38 0.24 0.0
0.4 0.24 0.0
0.42 0.24 0.0
0.44 0.24 0.0
0.46 0.24 0.0
0.48 0.24 0.0
0.5 0.24 0.0
0.52 0.24 0.0
0.54 0.24 0.0
0.56 0.24 0.0
0.58 0.24 0.0
0.6 0.24 0.0
0.62 0.24 0.0
0.64 0.24 0.0
0.66 0.24 0.0
0.68 0.24 0.0
0.7000000000000001 0.24 0.0
0.72 0.24 0.0
0.74 0.24 0.0
0.76 0.24 0.0
0.78 0.24 0.0
0.8 0.24 0.0
0.8200000000000001 0.24 0.0
0.84 0.24 0.0
0.86 0.24 0.0
0.88 0.24 0.0
0.9 0.24 0.0
0.92 0.24 0.0
0.9400000000000001 0.24 0.0
0.96 0.24 0.0
0.98 0.24 0.0
1.0 0.24 0.0
0.0 0.26 0.0
0.02 0.26 0.0
0.04 0.26 0.0
0.06 0.26 0.0
0.08 0.26 0.0
0.1 0.26 0.0
0.12 0.26 0.0
0.14 0.26 0.0
0.16 0.26 0.0
0.18 0.26 0.0
0.2 0.26 0.0
0.22 0.26 0.0
0.24 0.26 0.0
0.26 0.26 0.0
0.28 0.26 0.0
0.3 0.26 0.0
0.32 0.26 0.0
0.34 0.26 0.0
0.36 0.26 0.0
0.38 0.26 0.0
0.4 0.26 0.0
0.42 0.26 0.0
0.44 0.26 0.0
0.46 0.26 0.0
0.48 0.26 0.0
[...]
CELL_DATA 2500
SCALARS u float 1
LOOKUP_TABLE u_cell_table
4.320256863834272e-05 0.00010314739740654243 0.00010036716832421269 9.833541797105605e-06 -0.0001707422932866952 -0.00043310611599224364 -0.0007642705472222806 -0.0011501190977933498 -0.001577278096109229 -0.002034110337288444 -0.002510706360302829 -0.0029987639261716227 -0.003490980811016592 -0.003980803321328932 -0.0044618894310268975 -0.004928075138554387 -0.005373027931539489 -0.005790403618434541 -0.006173624350856636 -0.006516155240959179 -0.006811369018688274 -0.007052915631378508 -0.00723466502241068 -0.007351153070344408 -0.0073975868612219855 -0.007370333751569515 -0.007266950177848793 -0.007086656986821939 -0.006830331909278547 -0.0065009016367638915 -0.006103233868085005 -0.005644381267121711 -0.005133320319414537 -0.0045810011037910135 -0.003999907040637435 -0.0034039003594762396 -0.0028076191108201767 -0.002226151278555462 -0.0016743196243543105 -0.0011662303555226268 -0.0007144669839271128 -0.0003294462329584438 -1.824569188611078e-05 0.00021702580565700213 0.00038282294075823987 0.0005019466330267379 0.0006319373480308918 0.0009050298644327321 0.001593697915438164 0.0 4.594633924509496e-05 3.335314601852979e-05 -0.00014009172124573226 -0.0005134043570553721 -0.001091189943450188 -0.0018586784141016968 -0.002791623247732651 -0.003861622096774872 -0.005040224559661421 -0.006300019398103235 -0.007616116558638104 -0.008965328021029723 -0.010326776388602639 -0.011680475592872129 -0.013007902407908866 -0.014290539464296563 -0.015510692459064107 -0.01665018646307148 -0.017691488200215964 -0.018616619408346684 -0.01940857189749875 -0.020050446513298893 -0.020527104078292877 -0.020824490495406113 -0.020931425644928545 -0.020839030678534976 -0.020542519280569223 -0.020040605027206233 -0.019337132935491212 -0.018440326780464755 -0.01736409824993783 -0.016127006642260085 -0.014753113206832789 -0.013270570860954588 -0.011711954779031666 -0.010112477296616419 -0.008509813645798427 -0.006942022251152384 -0.005446953186081315 -0.004059982996601671 -0.0028130573408067373 -0.0017322076914738458 -0.0008359954696483503 -0.0001323598660626346 0.0003840040867718269 0.0007344425780805614 0.000951635012854107 0.0010475187092738975 0.00089780628547526 0.0 -5.439457668446415e-06 -0.00018767835930996957 -0.0006230322383517116 -0.0013441146351573304 -0.002351333548937172 -0.0036249851962424384 -0.005133581021175103 -0.006840495975011741 -0.008706818900222544 -0.010694501096290611 -0.01276641468325442 -0.01488796485369709 -0.017025837184592246 -0.01914908446959301 -0.021227349368553527 -0.023231947806279282 -0.025134031852772312 -0.026905962610921534 -0.0285196859599768 -0.029948512761017024 -0.031165812139916062 -0.032147173210065084 -0.032869394025721616 -0.03331290472438052 -0.03346094958626552 -0.033302093874238624 -0.03282944355669196 -0.03204302216922224 -0.03094884318253091 -0.02956093264613628 -0.027900070882383693 -0.025995259727090738 -0.023881990362544424 -0.021603017366693882 -0.01920609197315372 -0.016744006878119774 -0.014271845270300534 -0.011846372961997602 -0.009522951420378812 -0.007354425961272395 -0.00538788382606021 -0.0036631932878355778 -0.002209830040477827 -0.0010455320450467821 -0.00017458854196622693 0.0004096146972830854 0.0007164005193080038 0.0007399290836337971 0.00045823000215933847 0.0 -9.131398920522409e-05 -0.000490710645326783 -0.001235875352141384 -0.002341781957144078 -0.0038000173008332127 -0.0055839922519424386 -0.007656325605384193 -0.009972710117807274 -0.012486657413649207 -0.015150432445983152 -0.017918071388445523 -0.020744425276178702 -0.02358721385729222 -0.026404963495802104 -0.029158735488247545 -0.031809643678426286 -0.03432075641454578 -0.03665468790816406 -0.038775941440885836 -0.040648817912839544 -0.04224024106104143 -0.04351802601272391 -0.04445407832718144 -0.04502294257262387 -0.045205183952408565 -0.0449860634875302 -0.04435886278126483 -0.04332348846516691 -0.04188947849198423 -0.04007432474430309 -0.037905908065071575 -0.03542035106168036 -0.032663676991463844 -0.029689072261722387 -0.026557656733528234 -0.02333514559170077 -0.020091745482868066 -0.016898337522421893 -0.013825647091841219 -0.010940194114043377 -0.008303008368241677 -0.0059657383352690815 -0.0039694325361512225 -0.002341693501283872 -0.0010969849885368325 -0.00023696583593118447 0.00024654254134936127 0.00037561311313090347 0.00021907802431493363 0.0 -0.00019391111455375142 -0.0008271314370856301 -0.0019033955580592052 -0.003415161439641614 -0.005339166393051771 -0.007639376912219284 -0.010269651595677283 -0.013178762594701068 -0.016311837457106765 -0.019614327398929335 -0.023031535382149505 -0.026511500407598535 -0.030002992640439447 -0.033457802034425346 -0.03682793760468353 -0.04006793047477511 -0.04313189265192343 -0.04597622727924426 -0.04855692318997267 -0.05083279401893323 -0.052763138264410765 -0.05431144059841091 -0.05544336907051953 -0.05613076347044866 -0.056349844775270046 -0.05608525201896238 -0.055328278379055164 -0.054080682810194666 -0.0523527359786406 -0.05016652507011446 -0.047553594115659646 -0.044557485655957296 -0.04123080119415425 -0.03763679090492188 -0.03384574811757864 -0.029935572368230228 -0.025987544613828267 -0.022085941472351656 -0.018313400608608126 -0.014749839129597658 -0.011467802082812582 -0.008531148444331543 -0.005991024689648679 -0.0038850710507466616 -0.0022348189185231178 -0.0010455277726818311 -0.00030245391069961094 3.829421036766721e-05 7.55770742530959e-05 0.0 -0.0002974655083557862 -0.0011666911090728912 -0.0025819591919985898 -0.004509837251302076 -0.006908629731727099 -0.009727922938314844 -0.012911819969296039 -0.01639970234380373 -0.020130347524858556 -0.02404149355869076 -0.028073300374767268 -0.03216632109060659 -0.0362643653967945 -0.040311422641233545 -0.04425445394615429 -0.048039945413321836 -0.0516170529759467 -0.05493424521263438 -0.057942980671843274 -0.06059466119276066 -0.0628448286444811 -0.06465047554153255 -0.06597462187875898 -0.06678391088456022 -0.06705334685878281 -0.06676402475092161 -0.06590776207960382 -0.06448476277395344 -0.06250785312092601 -0.05999985943025313 -0.05699715922157732 -0.053546562157377034 -0.04970792175390432 -0.04555036075643867 -0.041153769811527414 -0.03660432488394332 -0.03199483843176613 -0.02741968138392712 -0.022974145518553243 -0.018749091541427454 -0.014829704948842608 -0.011290408138354118 -0.008193577024317266 -0.005585307051460622 -0.0034943513982822897 -0.0019281501147224134 -0.000869442796157627 -0.00026731544498141186 -2.609596521174656e-05 0.0 -0.00039253562267394643 -0.0014957942283086356 -0.0032510145678348893 -0.00559776953811408 -0.00847217688926025 -0.011808349888428441 -0.015537486629725088 -0.019590959352576785 -0.023899310671936576 -0.028395644860298816 -0.033013391267986296 -0.03768944164271353 -0.04236085417023968 -0.04696800209250098 -0.051450751505916485 -0.05575194590306041 -0.05981350835875296 -0.06358044542795349 -0.06699715991771964 -0.07001200756190414 -0.07257394798084454 -0.07463756025546384 -0.07616002636808057 -0.07710641876428505 -0.07744691459815597 -0.07716211060903573 -0.07624030442318074 -0.07468255846657021 -0.07249984543966878 -0.06971756403333738 -0.0663723251082774 -0.06251562068943686 -0.05821003513461634 -0.05353180373108422 -0.048566292382878455 -0.04340928064496129 -0.038161688920274925 -0.03292960136635422 -0.027818434843443925 -0.02293196387212377 -0.018366377120711545 -0.014208799215973095 -0.010531829171278519 -0.00739203150410569 -0.004825190584433881 -0.0028443769104446073 -0.0014347921350240818 -0.0005501340959515871 -0.00010874082020068801 0.0 -0.0004789570811948459 -0.001811798665489285 -0.0039029671845923286 -0.006663142572511611 -0.01000683615952834 -0.01385034807198377 -0.018113394036123782 -0.02271694857598693 -0.027585908259610686 -0.03264628527404938 -0.03782824505413263 -0.04306245382905474 -0.04828341070120339 -0.05342523159640993 -0.05842539453776187 -0.0632203106714437 -0.06774960137581051 -0.07195176379889585 -0.07576903079094804 -0.079143326736258 -0.0820216538095861 -0.08435240037710341 -0.08609109975443822 -0.08719704712967316 -0.0876392156517932 -0.08739306818885062 -0.08644637955319827 -0.08479607976330052 -0.08245370082244732 -0.07944204386272061 -0.07579993759284016 -0.07157848585283795 -0.06684480855185802 -0.06167762503758872 -0.056169685100799144 -0.0504225199913713 -0.04454740483780331 -0.03865929680917397 -0.03287641642717301 -0.02731367587861038 -0.022081270098530777 -0.01727817185883577 -0.012990319260936793 -0.009284789867563953 -0.006207993968716612 -0.003780757051760831 -0.001996642980826382 -0.0008188524572751326 -0.0001821189756462778 0.0 -0.0005612471842531667 -0.002116315178097702 -0.004533126161823994 -0.007695216228246964 -0.011494674319147781 -0.015832123383518925 -0.020613586464664897 -0.02575201512712588 -0.031163667480225515 -0.03677060964669025 -0.042496553332369416 -0.04827006526566523 -0.054019907406817516 -0.05967884403817196 -0.0651786919004649 -0.07045473293339141 -0.07544075963015306 -0.0800741247862999 -0.08429101793468421 -0.0880321100337282 -0.09123817799218348 -0.09385621266070188 -0.09583540242716582 -0.09713351725166786 -0.0977131938283257 -0.0975483799676124 -0.09662081396624159 -0.09492628423395574 -0.0924711394996619 -0.08927806976251462 -0.08538241383460346 -0.08083710599935147 -0.0757084838464252 -0.07008000917274958 -0.06404727396299449 -0.05772015785240896 -0.051216847838468894 -0.044664294307791876 -0.038191332693450576 -0.031927640639677464 -0.02599642084265748 -0.020512427995709077 -0.015574968380278558 -0.011265748985632755 -0.0076429909520594926 -0.0047398399651465035 -0.0025605709916565814 -0.0010811950416008752 -0.0002508974393385235 0.0 -0.0006424596471947047 -0.002408780003779016 -0.005136958933058871 -0.008684260435143025 -0.012923102642667498 -0.017736885559683557 -0.02302043759001519 -0.028675651288682456 -0.03461317715260962 -0.0407476260512099 -0.047000353182703784 -0.053294245882891216 -0.05955735861859117 -0.06571738701017059 -0.07170605781910437 -0.0774535361971526 -0.08289355469177229 -0.08795799955798332 -0.09258272034217986 -0.09670244425271483 -0.10025713567918085 -0.10318729304252361 -0.1054406874851447 -0.10696803831941491 -0.10772994900949556 -0.10769291767949099 -0.10683627364149567 -0.105148426497792 -0.10263355792667485 -0.0993079257813495 -0.09520597558573175 -0.09037640162795227 -0.08488723871359283 -0.07882128796192749 -0.0722797015522008 -0.0653763904734445 -0.05823971528334251 -0.051005690231863576 -0.04381770178358298 -0.036818724208247534 -0.030149459714229325 -0.023940267691875513 -0.018308572416151112 -0.013351562381514035 -0.009143956483141917 -0.0057327048389330375 -0.0031364686851075973 -0.0013441080815504698 -0.0003181615985115708 0.0 -0.00072114243524787 -0.002686592069595215 -0.0057092592234324205 -0.009623870861180557 -0.014282445654995151 -0.019553903976295268 -0.025319272922851497 -0.03147255170838217 -0.03791534263137615 -0.044558969262765785 -0.05131865094180855 -0.05811670561479854 -0.06487639355860757 -0.07152607895218693 -0.07799297875870431 -0.08420822070184213 -0.09010073657879362 -0.09560311723375212 -0.10064580800531593 -0.10516360696705049 -0.10909024345614995 -0.11236534710601383 -0.11492944842272619 -0.11673125874676074 -0.11772311000692287 -0.11786839675739078 -0.11713743652358342 -0.11551489609800818 -0.11299597151229171 -0.10959352715061457 -0.10533435331819523 -0.10026559642959193 -0.09445068155544925 -0.08797446280107082 -0.08093828078951178 -0.07346322252227974 -0.06568384062305481 -0.05774910344188356 -0.049814633448534394 -0.04204140394369614 -0.03458693804781907 -0.027602457340083368 -0.021224117977863024 -0.015569871970338815 -0.010732231265501907 -0.0067763743655394225 -0.00373609191843884 -0.0016147860148077123 -0.00038623803889622946 0.0 -0.0007944544882050445 -0.0029465637067909506 -0.0062472346319681175 -0.010509088349223875 -0.01556683004827562 -0.02127303893715382 -0.027498394421270132 -0.0341259913762994 -0.04105271792708008 -0.048182859960085936 -0.05543067020896768 -0.06271355286660564 -0.0699557961344578 -0.0770816353988708 -0.08402007909440404 -0.09069809326788056 -0.09704637571652418 -0.10299281688348177 -0.1084690281985976 -0.11340417192396254 -0.11773204961708791 -0.12138536750120128 -0.12430322730752114 -0.12642589178658667 -0.12770256300350732 -0.1280867037672045 -0.1275439952965722 -0.1260482136213972 -0.12358918944055602 -0.12016910231764784 -0.11581010390720958 -0.11055067874316174 -0.10445236823147144 -0.09759561445998154 -0.0900848328952903 -0.08204303283152474 -0.07361448789670412 -0.06495758005727362 -0.0562446633614026 -0.04765311590946807 -0.03936270881040321 -0.03154568127477455 -0.024362790768728364 -0.01795400978511366 -0.012435037745420135 -0.007890560556461854 -0.004373051822552863 -0.001900258805310516 -0.000457461657667882 0.0 -0.0008608764762083581 -0.003187870639969868 -0.006748717121485151 -0.01133695383079122 -0.01676914066484199 -0.022885292970992788 -0.02954341282248055 -0.03662021435929157 -0.04400436273015059 -0.0515983128243692 -0.05931089455884768 -0.06706044837281606 -0.07476720949509148 -0.08235773406873739 -0.08975736891935912 -0.09689580177952736 -0.10369977864375779 -0.11009954345621856 -0.11602190248782976 -0.12139732355291692 -0.12615342729076373 -0.1302225673231963 -0.1335358409125518 -0.13603104434062951 -0.1376473158291177 -0.1383334121066428 -0.13804308005980015 -0.13674357951641536 -0.1344117792998311 -0.1310427179946006 -0.1266462075999131 -0.12125497393917589 -0.11492124762262783 -0.10772371805090913 -0.0997632957368942 -0.09116789573111012 -0.08208645611702532 -0.07269065878308338 -0.0631666103825419 -0.053713198937618195 -0.04453168500470962 -0.03582143703476913 -0.027768813061075936 -0.02054209472231022 -0.014281889875862312 -0.009097558388654938 -0.005061348091941429 -0.002208042291779614 -0.0005339068998351845 0.0 -0.0009214492806984081 -0.003410162552128752 -0.007212350010854656 -0.012102295744675773 -0.0178823740609537 -0.024378547454600708 -0.03144078895379284 -0.03893633261502189 -0.04675082419236849 -0.05478048552294455 -0.06293456322108544 -0.07112710025936958 -0.07928081985142665 -0.08731889463419261 -0.09517012968396395 -0.10276093301972779 -0.1100215453592409 -0.11687832977153889 -0.12326078071046818 -0.12909421906743598 -0.13430736149700045 -0.13882552121405545 -0.14257861131472477 -0.14549499520279044 -0.1475098935607837 -0.14856005673186154 -0.14859258572239334 -0.1475605549994575 -0.14543218681358192 -0.14218738638506312 -0.13782698915147917 -0.13236986001009152 -0.12586157384216137 -0.11837131961206573 -0.10999897145966808 -0.10087067981785253 -0.09114306308543138 -0.08099633777906291 -0.07063462014325356 -0.06027604277975589 -0.050149114963285786 -0.040480541021381794 -0.03148904890108415 -0.02337307921610662 -0.01630469896079237 -0.010420046340148242 -0.005815979590711186 -0.002545415373793019 -0.0006178501183865116 0.0 -0.000977019672741648 -0.0036130930158632508 -0.007634395376118107 -0.012799783155716525 -0.01889676462634378 -0.025741886190247656 -0.03317453831386265 -0.04105761408193217 -0.0492695676188509 -0.05770618504950218 -0.06627190055723389 -0.0748830432425686 -0.0834589672545489 -0.09192673604275442 -0.10021236468129897 -0.1082467165664888 -0.11595702392721781 -0.12327370760762164 -0.13012227406884005 -0.1364307895746134 -0.14212224842877633 -0.14712252752659044 -0.1513533732283627 -0.15474079193011833 -0.15720886952389937 -0.15868865637540552 -0.1591130533991603 -0.15842626009853567 -0.15657987211980548 -0.15354282044878872 -0.14929857335724092 -0.14385516614645244 -0.13724296682504128 -0.1295239001396089 -0.12078869250711825 -0.11116387939147471 -0.10080702605603595 -0.08990990496040835 -0.07869030295156537 -0.06739030235588202 -0.05626431218486526 -0.04557288572192 -0.03556845192230192 -0.026487046854321253 -0.018534940767289135 -0.011881794733698606 -0.00665162409768774 -0.0029200781089647196 -0.0007113332228990614 0.0 -0.0010274203724174357 -0.003794189893936284 -0.008011175327356856 -0.013422179109698312 -0.019804282968002407 -0.02696271758116076 -0.034731298394885014 -0.042964818118347556 -0.051540260159066806 -0.06034792018792443 -0.069293994114833 -0.07829119919022123 -0.08726286280504202 -0.0961334923216459 -0.10483422598549218 -0.11329360941641306 -0.12144413076336369 -0.12921333515955818 -0.13653113200849526 -0.14332133575632058 -0.14950950670068122 -0.1550150484596327 -0.15975948818054714 -0.16365934905971816 -0.1666349280880527 -0.16860423746216746 -0.16949243042581214 -0.169227103976383 -0.16774848939044143 -0.1650062613552894 -0.16097038311537884 -0.15562920770203384 -0.1490003997665595 -0.14112951935006096 -0.13209976778980834 -0.12202952828067176 -0.11107903518502335 -0.099444878608914 -0.0873615841564771 -0.07509147648620879 -0.06292018415987172 -0.05114194867866008 -0.04005033300426998 -0.029921621545569606 -0.02100444233727552 -0.013505699053227089 -0.007583500910530195 -0.0033393510009666794 -0.0008166349168617301 0.0 -0.0010709451877980425 -0.0039512646836546575 -0.00833803773592777 -0.01396436265846759 -0.020595844728778 -0.028031218888549994 -0.036095569563619444 -0.044641194099700215 -0.053538896960536875 -0.06267998372192755 -0.07196659233466601 -0.08131514528886569 -0.09064636142130295 -0.09989017214085234 -0.10897581128631352 -0.11783797566188273 -0.12640719211652454 -0.13461689118399753 -0.14239414903071296 -0.14966737068169886 -0.156357513617906 -0.16238621172017975 -0.16766767326402743 -0.17211725615873416 -0.17564434285586092 -0.17816153606633003 -0.1795788881122346 -0.17981395994539218 -0.1787877553494466 -0.17643580149631727 -0.17270592264353002 -0.16757016736426134 -0.16102405543421533 -0.1530985206423606 -0.14385944473727236 -0.13341786414457796 -0.12192765996142044 -0.10959147478534967 -0.09665395335528397 -0.08340092164545627 -0.07014645892070086 -0.05722470509756797 -0.04497173409846231 -0.033712656023693235 -0.023742646950898935 -0.015314784623197478 -0.00862604191079862 -0.0038109052166647424 -0.0009357859403128187 0.0 -0.001106739998629693 -0.004082007713428318 -0.008612476102289037 -0.014420529249029692 -0.021264967853572264 -0.02893569431019386 -0.03725450698506752 -0.04606701480105901 -0.055244191294175515 -0.06467273465777867 -0.07425791792982774 -0.08391323534142402 -0.09356473783862243 -0.10314054050060788 -0.11257653250305505 -0.12180605584342347 -0.13076668051714124 -0.13939019407526201 -0.14761009299531883 -0.15535197788151625 -0.1625415098252931 -0.1690953637647631 -0.1749295772677533 -0.17995133020297474 -0.18406781094380542 -0.18717921447306804 -0.18918841040096795 -0.18999562876409135 -0.18950927240517174 -0.1876427107875093 -0.18432644063030543 -0.17950710780125984 -0.17316074544678178 -0.16529344226755127 -0.15595446060326673 -0.1452368251913698 -0.13328785935163773 -0.12030672504228346 -0.10654895825398332 -0.0923176158732387 -0.07795896062200307 -0.0638456357977754 -0.050363716774781186 -0.03789046467182954 -0.026777567350971622 -0.01733018343492737 -0.00979386195532836 -0.00434190956641366 -0.0010710739267151379 0.0 -0.0011344909871921858 -0.004185902606237649 -0.008831388360957978 -0.014787033447231845 -0.02180354215457851 -0.029667240710740377 -0.038193132528671944 -0.04722624659295486 -0.05663244202824279 -0.06630077897854667 -0.07613308678243667 -0.08604773464702099 -0.09596872595785215 -0.10583090846842451 -0.11556905807370282 -0.12512429365607286 -0.13443337774991465 -0.14343598043885308 -0.15206431027428252 -0.16025090675329934 -0.16791871908513645 -0.17498925505878699 -0.18137331667113243 -0.186979537939385 -0.19170612422896224 -0.19545002139769427 -0.19810014913707052 -0.1995476125179335 -0.19968101380424047 -0.198398172999074 -0.1956040385516648 -0.1912241821521767 -0.18520541097236629 -0.177530621784095 -0.16822121395006334 -0.15735155936385803 -0.1450506979268026 -0.13151294049945284 -0.11699471868474892 -0.10181678425879606 -0.08635204738395699 -0.07101631577303291 -0.056246219625732355 -0.04248042241866185 -0.03013