# vtk DataFile Version 3.0
vtk output
ASCII
DATASET STRUCTURED_GRID
DIMENSIONS 51 51 1
POINTS 2601 float
0.0 0.0 0.0
0.02 0.0 0.0
0.04 0.0 0.0
0.06 0.0 0.0
0.08 0.0 0.0
0.1 0.0 0.0
0.12 0.0 0.0
0.14 0.0 0.0
0.16 0.0 0.0
0.18 0.0 0.0
0.2 0.0 0.0
0.22 0.0 0.0
0.24 0.0 0.0
0.26 0.0 0.0
0.28 0.0 0.0
0.3 0.0 0.0
0.32 0.0 0.0
0.34 0.0 0.0
0.36 0.0 0.0
0.38 0.0 0.0
0.4 0.0 0.0
0.42 0.0 0.0
0.44 0.0 0.0
0.46 0.0 0.0
0.48 0.0 0.0
0.5 0.0 0.0
0.52 0.0 0.0
0.54 0.0 0.0
0.56 0.0 0.0
0.58 0.0 0.0
0.6 0.0 0.0
0.62 0.0 0.0
0.64 0.0 0.0
0.66 0.0 0.0
0.68 0.0 0.0
0.7000000000000001 0.0 0.0
0.72 0.0 0.0
0.74 0.0 0.0
0.76 0.0 0.0
0.78 0.0 0.0
0.8 0.0 0.0
0.8200000000000001 0.0 0.0
0.84 0.0 0.0
0.86 0.0 0.0
0.88 0.0 0.0
0.9 0.0 0.0
0.92 0.0 0.0
0.9400000000000001 0.0 0.0
0.96 0.0 0.0
0.98 0.0 0.0
1.0 0.0 0.0
0.0 0.02 0.0
0.02 0.02 0.0
0.04 0.02 0.0
0.06 0.02 0.0
0.08 0.02 0.0
0.1 0.02 0.0
0.12 0.02 0.0
0.14 0.02 0.0
0.16 0.02 0.0
0.18 0.02 0.0
0.2 0.02 0.0
0.22 0.02 0.0
0.24 0.02 0.0
0.26 0.02 0.0
0.28 0.02 0.0
0.3 0.02 0.0
0.32 0.02 0.0
0.34 0.02 0.0
0.36 0.02 0.0
0.38 0.02 0.0
0.4 0.02 0.0
0.42 0.02 0.0
0.44 0.02 0.0
0.46 0.02 0.0
0.48 0.02 0.0
0.5 0.02 0.0
0.52 0.02 0.0
0.54 0.02 0.0
0.56 0.02 0.0
0.58 0.02 0.0
0.6 0.02 0.0
0.62 0.02 0.0
0.64 0.02 0.0
0.66 0.02 0.0
0.68 0.02 0.0
0.7000000000000001 0.02 0.0
0.72 0.02 0.0
0.74 0.02 0.0
0.76 0.02 0.0
0.78 0.02 0.0
0.8 0.02 0.0
0.8200000000000001 0.02 0.0
0.84 0.02 0.0
0.86 0.02 0.0
0.88 0.02 0.0
0.9 0.02 0.0
0.92 0.02 0.0
0.9400000000000001 0.02 0.0
0.96 0.02 0.0
0.98 0.02 0.0
1.0 0.02 0.0
0.0 0.04 0.0
0.02 0.04 0.0
0.04 0.04 0.0
0.06 0.04 0.0
0.08 0.04 0.0
0.1 0.04 0.0
0.12 0.04 0.0
0.14 0.04 0.0
0.16 0.04 0.0
0.18 0.04 0.0
0.2 0.04 0.0
0.22 0.04 0.0
0.24 0.04 0.0
0.26 0.04 0.0
0.28 0.04 0.0
0.3 0.04 0.0
0.32 0.04 0.0
0.34 0.04 0.0
0.36 0.04 0.0
0.38 0.04 0.0
0.4 0.04 0.0
0.42 0.04 0.0
0.44 0.04 0.0
0.46 0.04 0.0
0.48 0.04 0.0
0.5 0.04 0.0
0.52 0.04 0.0
0.54 0.04 0.0
0.56 0.04 0.0
0.58 0.04 0.0
0.6 0.04 0.0
0.62 0.04 0.0
0.64 0.04 0.0
0.66 0.04 0.0
0.68 0.04 0.0
0.7000000000000001 0.04 0.0
0.72 0.04 0.0
0.74 0.04 0.0
0.76 0.04 0.0
0.78 0.04 0.0
0.8 0.04 0.0
0.8200000000000001 0.04 0.0
0.84 0.04 0.0
0.86 0.04 0.0
0.88 0.04 0.0
0.9 0.04 0.0
0.92 0.04 0.0
0.9400000000000001 0.04 0.0
0.96 0.04 0.0
0.98 0.04 0.0
1.0 0.04 0.0
0.0 0.06 0.0
0.02 0.06 0.0
0.04 0.06 0.0
0.06 0.06 0.0
0.08 0.06 0.0
0.1 0.06 0.0
0.12 0.06 0.0
0.14 0.06 0.0
0.16 0.06 0.0
0.18 0.06 0.0
0.2 0.06 0.0
0.22 0.06 0.0
0.24 0.06 0.0
0.26 0.06 0.0
0.28 0.06 0.0
0.3 0.06 0.0
0.32 0.06 0.0
0.34 0.06 0.0
0.36 0.06 0.0
0.38 0.06 0.0
0.4 0.06 0.0
0.42 0.06 0.0
0.44 0.06 0.0
0.46 0.06 0.0
0.48 0.06 0.0
0.5 0.06 0.0
0.52 0.06 0.0
0.54 0.06 0.0
0.56 0.06 0.0
0.58 0.06 0.0
0.6 0.06 0.0
0.62 0.06 0.0
0.64 0.06 0.0
0.66 0.06 0.0
0.68 0.06 0.0
0.7000000000000001 0.06 0.0
0.72 0.06 0.0
0.74 0.06 0.0
0.76 0.06 0.0
0.78 0.06 0.0
0.8 0.06 0.0
0.8200000000000001 0.06 0.0
0.84 0.06 0.0
0.86 0.06 0.0
0.88 0.06 0.0
0.9 0.06 0.0
0.92 0.06 0.0
0.9400000000000001 0.06 0.0
0.96 0.06 0.0
0.98 0.06 0.0
1.0 0.06 0.0
0.0 0.08 0.0
0.02 0.08 0.0
0.04 0.08 0.0
0.06 0.08 0.0
0.08 0.08 0.0
0.1 0.08 0.0
0.12 0.08 0.0
0.14 0.08 0.0
0.16 0.08 0.0
0.18 0.08 0.0
0.2 0.08 0.0
0.22 0.08 0.0
0.24 0.08 0.0
0.26 0.08 0.0
0.28 0.08 0.0
0.3 0.08 0.0
0.32 0.08 0.0
0.34 0.08 0.0
0.36 0.08 0.0
0.38 0.08 0.0
0.4 0.08 0.0
0.42 0.08 0.0
0.44 0.08 0.0
0.46 0.08 0.0
0.48 0.08 0.0
0.5 0.08 0.0
0.52 0.08 0.0
0.54 0.08 0.0
0.56 0.08 0.0
0.58 0.08 0.0
0.6 0.08 0.0
0.62 0.08 0.0
0.64 0.08 0.0
0.66 0.08 0.0
0.68 0.08 0.0
0.7000000000000001 0.08 0.0
0.72 0.08 0.0
0.74 0.08 0.0
0.76 0.08 0.0
0.78 0.08 0.0
0.8 0.08 0.0
0.8200000000000001 0.08 0.0
0.84 0.08 0.0
0.86 0.08 0.0
0.88 0.08 0.0
0.9 0.08 0.0
0.92 0.08 0.0
0.9400000000000001 0.08 0.0
0.96 0.08 0.0
0.98 0.08 0.0
1.0 0.08 0.0
0.0 0.1 0.0
0.02 0.1 0.0
0.04 0.1 0.0
0.06 0.1 0.0
0.08 0.1 0.0
0.1 0.1 0.0
0.12 0.1 0.0
0.14 0.1 0.0
0.16 0.1 0.0
0.18 0.1 0.0
0.2 0.1 0.0
0.22 0.1 0.0
0.24 0.1 0.0
0.26 0.1 0.0
0.28 0.1 0.0
0.3 0.1 0.0
0.32 0.1 0.0
0.34 0.1 0.0
0.36 0.1 0.0
0.38 0.1 0.0
0.4 0.1 0.0
0.42 0.1 0.0
0.44 0.1 0.0
0.46 0.1 0.0
0.48 0.1 0.0
0.5 0.1 0.0
0.52 0.1 0.0
0.54 0.1 0.0
0.56 0.1 0.0
0.58 0.1 0.0
0.6 0.1 0.0
0.62 0.1 0.0
0.64 0.1 0.0
0.66 0.1 0.0
0.68 0.1 0.0
0.7000000000000001 0.1 0.0
0.72 0.1 0.0
0.74 0.1 0.0
0.76 0.1 0.0
0.78 0.1 0.0
0.8 0.1 0.0
0.8200000000000001 0.1 0.0
0.84 0.1 0.0
0.86 0.1 0.0
0.88 0.1 0.0
0.9 0.1 0.0
0.92 0.1 0.0
0.9400000000000001 0.1 0.0
0.96 0.1 0.0
0.98 0.1 0.0
1.0 0.1 0.0
0.0 0.12 0.0
0.02 0.12 0.0
0.04 0.12 0.0
0.06 0.12 0.0
0.08 0.12 0.0
0.1 0.12 0.0
0.12 0.12 0.0
0.14 0.12 0.0
0.16 0.12 0.0
0.18 0.12 0.0
0.2 0.12 0.0
0.22 0.12 0.0
0.24 0.12 0.0
0.26 0.12 0.0
0.28 0.12 0.0
0.3 0.12 0.0
0.32 0.12 0.0
0.34 0.12 0.0
0.36 0.12 0.0
0.38 0.12 0.0
0.4 0.12 0.0
0.42 0.12 0.0
0.44 0.12 0.0
0.46 0.12 0.0
0.48 0.12 0.0
0.5 0.12 0.0
0.52 0.12 0.0
0.54 0.12 0.0
0.56 0.12 0.0
0.58 0.12 0.0
0.6 0.12 0.0
0.62 0.12 0.0
0.64 0.12 0.0
0.66 0.12 0.0
0.68 0.12 0.0
0.7000000000000001 0.12 0.0
0.72 0.12 0.0
0.74 0.12 0.0
0.76 0.12 0.0
0.78 0.12 0.0
0.8 0.12 0.0
0.8200000000000001 0.12 0.0
0.84 0.12 0.0
0.86 0.12 0.0
0.88 0.12 0.0
0.9 0.12 0.0
0.92 0.12 0.0
0.9400000000000001 0.12 0.0
0.96 0.12 0.0
0.98 0.12 0.0
1.0 0.12 0.0
0.0 0.14 0.0
0.02 0.14 0.0
0.04 0.14 0.0
0.06 0.14 0.0
0.08 0.14 0.0
0.1 0.14 0.0
0.12 0.14 0.0
0.14 0.14 0.0
0.16 0.14 0.0
0.18 0.14 0.0
0.2 0.14 0.0
0.22 0.14 0.0
0.24 0.14 0.0
0.26 0.14 0.0
0.28 0.14 0.0
0.3 0.14 0.0
0.32 0.14 0.0
0.34 0.14 0.0
0.36 0.14 0.0
0.38 0.14 0.0
0.4 0.14 0.0
0.42 0.14 0.0
0.44 0.14 0.0
0.46 0.14 0.0
0.48 0.14 0.0
0.5 0.14 0.0
0.52 0.14 0.0
0.54 0.14 0.0
0.56 0.14 0.0
0.58 0.14 0.0
0.6 0.14 0.0
0.62 0.14 0.0
0.64 0.14 0.0
0.66 0.14 0.0
0.68 0.14 0.0
0.7000000000000001 0.14 0.0
0.72 0.14 0.0
0.74 0.14 0.0
0.76 0.14 0.0
0.78 0.14 0.0
0.8 0.14 0.0
0.8200000000000001 0.14 0.0
0.84 0.14 0.0
0.86 0.14 0.0
0.88 0.14 0.0
0.9 0.14 0.0
0.92 0.14 0.0
0.9400000000000001 0.14 0.0
0.96 0.14 0.0
0.98 0.14 0.0
1.0 0.14 0.0
0.0 0.16 0.0
0.02 0.16 0.0
0.04 0.16 0.0
0.06 0.16 0.0
0.08 0.16 0.0
0.1 0.16 0.0
0.12 0.16 0.0
0.14 0.16 0.0
0.16 0.16 0.0
0.18 0.16 0.0
0.2 0.16 0.0
0.22 0.16 0.0
0.24 0.16 0.0
0.26 0.16 0.0
0.28 0.16 0.0
0.3 0.16 0.0
0.32 0.16 0.0
0.34 0.16 0.0
0.36 0.16 0.0
0.38 0.16 0.0
0.4 0.16 0.0
0.42 0.16 0.0
0.44 0.16 0.0
0.46 0.16 0.0
0.48 0.16 0.0
0.5 0.16 0.0
0.52 0.16 0.0
0.54 0.16 0.0
0.56 0.16 0.0
0.58 0.16 0.0
0.6 0.16 0.0
0.62 0.16 0.0
0.64 0.16 0.0
0.66 0.16 0.0
0.68 0.16 0.0
0.7000000000000001 0.16 0.0
0.72 0.16 0.0
0.74 0.16 0.0
0.76 0.16 0.0
0.78 0.16 0.0
0.8 0.16 0.0
0.8200000000000001 0.16 0.0
0.84 0.16 0.0
0.86 0.16 0.0
0.88 0.16 0.0
0.9 0.16 0.0
0.92 0.16 0.0
0.9400000000000001 0.16 0.0
0.96 0.16 0.0
0.98 0.16 0.0
1.0 0.16 0.0
0.0 0.18 0.0
0.02 0.18 0.0
0.04 0.18 0.0
0.06 0.18 0.0
0.08 0.18 0.0
0.1 0.18 0.0
0.12 0.18 0.0
0.14 0.18 0.0
0.16 0.18 0.0
0.18 0.18 0.0
0.2 0.18 0.0
0.22 0.18 0.0
0.24 0.18 0.0
0.26 0.18 0.0
0.28 0.18 0.0
0.3 0.18 0.0
0.32 0.18 0.0
0.34 0.18 0.0
0.36 0.18 0.0
0.38 0.18 0.0
0.4 0.18 0.0
0.42 0.18 0.0
0.44 0.18 0.0
0.46 0.18 0.0
0.48 0.18 0.0
0.5 0.18 0.0
0.52 0.18 0.0
0.54 0.18 0.0
0.56 0.18 0.0
0.58 0.18 0.0
0.6 0.18 0.0
0.62 0.18 0.0
0.64 0.18 0.0
0.66 0.18 0.0
0.68 0.18 0.0
0.7000000000000001 0.18 0.0
0.72 0.18 0.0
0.74 0.18 0.0
0.76 0.18 0.0
0.78 0.18 0.0
0.8 0.18 0.0
0.8200000000000001 0.18 0.0
0.84 0.18 0.0
0.86 0.18 0.0
0.88 0.18 0.0
0.9 0.18 0.0
0.92 0.18 0.0
0.9400000000000001 0.18 0.0
0.96 0.18 0.0
0.98 0.18 0.0
1.0 0.18 0.0
0.0 0.2 0.0
0.02 0.2 0.0
0.04 0.2 0.0
0.06 0.2 0.0
0.08 0.2 0.0
0.1 0.2 0.0
0.12 0.2 0.0
0.14 0.2 0.0
0.16 0.2 0.0
0.18 0.2 0.0
0.2 0.2 0.0
0.22 0.2 0.0
0.24 0.2 0.0
0.26 0.2 0.0
0.28 0.2 0.0
0.3 0.2 0.0
0.32 0.2 0.0
0.34 0.2 0.0
0.36 0.2 0.0
0.38 0.2 0.0
0.4 0.2 0.0
0.42 0.2 0.0
0.44 0.2 0.0
0.46 0.2 0.0
0.48 0.2 0.0
0.5 0.2 0.0
0.52 0.2 0.0
0.54 0.2 0.0
0.56 0.2 0.0
0.58 0.2 0.0
0.6 0.2 0.0
0.62 0.2 0.0
0.64 0.2 0.0
0.66 0.2 0.0
0.68 0.2 0.0
0.7000000000000001 0.2 0.0
0.72 0.2 0.0
0.74 0.2 0.0
0.76 0.2 0.0
0.78 0.2 0.0
0.8 0.2 0.0
0.8200000000000001 0.2 0.0
0.84 0.2 0.0
0.86 0.2 0.0
0.88 0.2 0.0
0.9 0.2 0.0
0.92 0.2 0.0
0.9400000000000001 0.2 0.0
0.96 0.2 0.0
0.98 0.2 0.0
1.0 0.2 0.0
0.0 0.22 0.0
0.02 0.22 0.0
0.04 0.22 0.0
0.06 0.22 0.0
0.08 0.22 0.0
0.1 0.22 0.0
0.12 0.22 0.0
0.14 0.22 0.0
0.16 0.22 0.0
0.18 0.22 0.0
0.2 0.22 0.0
0.22 0.22 0.0
0.24 0.22 0.0
0.26 0.22 0.0
0.28 0.22 0.0
0.3 0.22 0.0
0.32 0.22 0.0
0.34 0.22 0.0
0.36 0.22 0.0
0.38 0.22 0.0
0.4 0.22 0.0
0.42 0.22 0.0
0.44 0.22 0.0
0.46 0.22 0.0
0.48 0.22 0.0
0.5 0.22 0.0
0.52 0.22 0.0
0.54 0.22 0.0
0.56 0.22 0.0
0.58 0.22 0.0
0.6 0.22 0.0
0.62 0.22 0.0
0.64 0.22 0.0
0.66 0.22 0.0
0.68 0.22 0.0
0.7000000000000001 0.22 0.0
0.72 0.22 0.0
0.74 0.22 0.0
0.76 0.22 0.0
0.78 0.22 0.0
0.8 0.22 0.0
0.8200000000000001 0.22 0.0
0.84 0.22 0.0
0.86 0.22 0.0
0.88 0.22 0.0
0.9 0.22 0.0
0.92 0.22 0.0
0.9400000000000001 0.22 0.0
0.96 0.22 0.0
0.98 0.22 0.0
1.0 0.22 0.0
0.0 0.24 0.0
0.02 0.24 0.0
0.04 0.24 0.0
0.06 0.24 0.0
0.08 0.24 0.0
0.1 0.24 0.0
0.12 0.24 0.0
0.14 0.24 0.0
0.16 0.24 0.0
0.18 0.24 0.0
0.2 0.24 0.0
0.22 0.24 0.0
0.24 0.24 0.0
0.26 0.24 0.0
0.28 0.24 0.0
0.3 0.24 0.0
0.32 0.24 0.0
0.34 0.24 0.0
0.36 0.24 0.0
0.38 0.24 0.0
0.4 0.24 0.0
0.42 0.24 0.0
0.44 0.24 0.0
0.46 0.24 0.0
0.48 0.24 0.0
0.5 0.24 0.0
0.52 0.24 0.0
0.54 0.24 0.0
0.56 0.24 0.0
0.58 0.24 0.0
0.6 0.24 0.0
0.62 0.24 0.0
0.64 0.24 0.0
0.66 0.24 0.0
0.68 0.24 0.0
0.7000000000000001 0.24 0.0
0.72 0.24 0.0
0.74 0.24 0.0
0.76 0.24 0.0
0.78 0.24 0.0
0.8 0.24 0.0
0.8200000000000001 0.24 0.0
0.84 0.24 0.0
0.86 0.24 0.0
0.88 0.24 0.0
0.9 0.24 0.0
0.92 0.24 0.0
0.9400000000000001 0.24 0.0
0.96 0.24 0.0
0.98 0.24 0.0
1.0 0.24 0.0
0.0 0.26 0.0
0.02 0.26 0.0
0.04 0.26 0.0
0.06 0.26 0.0
0.08 0.26 0.0
0.1 0.26 0.0
0.12 0.26 0.0
0.14 0.26 0.0
0.16 0.26 0.0
0.18 0.26 0.0
0.2 0.26 0.0
0.22 0.26 0.0
0.24 0.26 0.0
0.26 0.26 0.0
0.28 0.26 0.0
0.3 0.26 0.0
0.32 0.26 0.0
0.34 0.26 0.0
0.36 0.26 0.0
0.38 0.26 0.0
0.4 0.26 0.0
0.42 0.26 0.0
0.44 0.26 0.0
0.46 0.26 0.0
0.48 0.26 0.0
[...]
CELL_DATA 2500
SCALARS u float 1
LOOKUP_TABLE u_cell_table
5.80534415913281e-05 0.00011312353958497256 0.00010171497784182803 3.467477315119964e-06 -0.00018183502017186161 -0.0004456612777322664 -0.0007761359628711733 -0.0011607426950814414 -0.0015874527878974077 -0.002045340991087639 -0.002524591338540527 -0.0030165503207003385 -0.0035133953465843093 -0.004008056175549835 -0.004493817569274164 -0.004964281153135559 -0.005413025394662259 -0.005833681074581174 -0.006219699067806249 -0.006564557933856659 -0.006861648012652078 -0.0071045986387373965 -0.007287262590430706 -0.007404131694517823 -0.007450388768757522 -0.007422365738908971 -0.00731761543137464 -0.007135353101527753 -0.00687648817347149 -0.006543981441371124 -0.006142772601854484 -0.005679988200607684 -0.005164711491569406 -0.0046079961393433915 -0.004022453615587895 -0.0034220641832468602 -0.0028215983481602236 -0.002236258286560386 -0.0016809838881131707 -0.0011699721861182081 -0.0007158913762797941 -0.00032921453073549145 -1.7071025561864867e-05 0.00021838777955832472 0.00038353011819080034 0.0005009453647669682 0.0006275841755816871 0.0008941674178999882 0.0015696183286666482 0.0 5.2914845414271766e-05 3.608912245657507e-05 -0.00014350159505503133 -0.000522891805391698 -0.0011062209936437298 -0.0018788792847431414 -0.0028171189060743184 -0.0038931752046616392 -0.005079002948586405 -0.00634734204723257 -0.007673107066179809 -0.009032802568103104 -0.01040511038822775 -0.011769706647185704 -0.013107717389436412 -0.014400433833703662 -0.01562993989576642 -0.01677796622807215 -0.017826807597450794 -0.0187584132972152 -0.019555604817268885 -0.02020141154369239 -0.020680531920199585 -0.020978863625355896 -0.02108510513066887 -0.02099038548421083 -0.020689868658667364 -0.02018235575356222 -0.019471732253579913 -0.018566399924143294 -0.017480405673020227 -0.01623257222344717 -0.014847177455113353 -0.013352700145161812 -0.011781983982579796 -0.01017059331159103 -0.008556483393777552 -0.006978045787164077 -0.005473375572713955 -0.004078116859687895 -0.002824383667769428 -0.0017383760976134432 -0.0008387284707350351 -0.0001334494428453666 0.0003827681465412859 0.0007312873005502796 0.000945004722130731 0.0010368103932375068 0.0008860434880511466 0.0 -1.2732672536505625e-05 -0.00019670417178569918 -0.0006337671124204594 -0.0013581791295069266 -0.002371353860583045 -0.0036539856794167926 -0.005174378457356006 -0.00689525430196469 -0.008777018904458585 -0.010780951490713725 -0.01286949826540092 -0.015007702189116293 -0.017162090294892178 -0.019301496069186748 -0.02139545366924753 -0.02341502819044886 -0.025331212549849477 -0.027116059834164735 -0.028741326286615704 -0.03018000375573041 -0.03140528980928493 -0.032392491447272465 -0.03311829300528602 -0.033562916837957465 -0.033709582388896805 -0.033546750861597426 -0.03306761557476504 -0.03227222037665288 -0.03116679181043099 -0.02976550891235057 -0.02808948907941553 -0.026168009500788666 -0.024037000298653754 -0.021739582607057027 -0.01932400668682483 -0.016843473843473705 -0.014353568816042212 -0.011911445866978856 -0.009572904054797092 -0.007391091260572705 -0.005413404679525114 -0.003679871941617259 -0.0022200986573041575 -0.0010517872994531535 -0.00017910234841427366 0.0004049589367224548 0.000710479214106822 0.0007331542879430364 0.0004533785389784558 0.0 -0.00010320084952611256 -0.0005026794257151321 -0.0012493378839363973 -0.0023610981718231276 -0.0038299609475997394 -0.005628893319065929 -0.007719432468269093 -0.01005612977223336 -0.012591460391601257 -0.015277099272605264 -0.018066664851602215 -0.020914899405575133 -0.023779322066177097 -0.026618379599275845 -0.029392822448276314 -0.03206355502257583 -0.034593213301526385 -0.03694414113512067 -0.03908038955537928 -0.040966018856210346 -0.042567554486456695 -0.0438526500003529 -0.044792905512826414 -0.045362810780362924 -0.04554274601912579 -0.04531804678339833 -0.044681953326635056 -0.04363459308716854 -0.04218562003184948 -0.0403528968634701 -0.03816457395034763 -0.03565727811540711 -0.03287742955866044 -0.02987881337380254 -0.026723025836859343 -0.02347641587891699 -0.020209679410692117 -0.016994291351809382 -0.01390140102321896 -0.010998000619681102 -0.008345398306131003 -0.005995512745126476 -0.00398944493812468 -0.0023547754216903076 -0.0011056790037344381 -0.0002433277969361811 0.00024133308300399768 0.0003715413295358506 0.00021718608794480044 0.0 -0.0002018482704841728 -0.00083748251338551 -0.0019198826823075411 -0.003443337482655015 -0.005384111519412326 -0.007704937388327077 -0.010358469516272804 -0.013292404676365579 -0.01645126839487161 -0.019780071653034963 -0.02322398884749386 -0.026730790871915676 -0.030249098893353237 -0.033730277887542806 -0.037126037741353236 -0.040390358049773645 -0.04347700563488609 -0.04634182927291276 -0.04894052370347609 -0.051231416173123843 -0.053173602029332606 -0.05473017746475436 -0.055866718474495515 -0.05655479920810548 -0.05677068235949653 -0.05649889114886161 -0.055730915873580214 -0.054468569668778465 -0.05272248593860834 -0.050514979877647026 -0.04787811487445787 -0.04485581744774296 -0.041501333663612104 -0.03787841286777591 -0.034058064342993154 -0.030118739531819715 -0.026142433043616985 -0.022213946268591755 -0.018416540602360736 -0.01483054062891272 -0.01152893094631744 -0.008575766399219708 -0.006022351177503669 -0.003906209395936777 -0.002248640036439683 -0.0010543670646784072 -0.0003079603778233793 3.5296974277831164e-05 7.475013132654988e-05 0.0 -0.00030104624691378647 -0.001177769529161016 -0.002605484355410576 -0.004550709291258224 -0.006970928625114529 -0.009814777722160271 -0.013025489503392124 -0.016541966651117297 -0.02030254159862204 -0.024244739402882635 -0.028308290621569004 -0.032433445907440635 -0.03656342231617179 -0.04064180254258763 -0.04461488519089428 -0.04842876252808984 -0.05203196271804274 -0.055372636120314574 -0.058401686349396784 -0.061070286622761365 -0.06333351219697542 -0.06514822980828143 -0.06647710676630615 -0.0672867893952882 -0.06755207658924103 -0.06725422285476042 -0.06638501461897668 -0.06494498807930192 -0.06294712366577415 -0.06041475083708907 -0.057384577300775105 -0.05390406440784207 -0.05003354130367207 -0.04584288713567369 -0.041412561156273106 -0.03682953524920735 -0.03218721038749633 -0.027580708886886043 -0.023105841176860452 -0.018854077055106472 -0.014910950707134624 -0.011351247577935382 -0.008237421211668752 -0.005615586644636431 -0.0035142221950061722 -0.0019403980201157201 -0.0008762689630243067 -0.00027038103404623234 -2.667659627686381e-05 0.0 -0.0003967341100028952 -0.0015117447317664519 -0.003283898249217005 -0.005651598548623093 -0.008550524827984404 -0.011914322803496382 -0.015673899582269245 -0.019760183583428237 -0.02410337061178453 -0.028635917504413543 -0.033290739216209723 -0.038003943007961165 -0.0427120648266552 -0.04735472595313775 -0.051871371998532215 -0.05620417783496094 -0.06029474351775989 -0.06408747328202342 -0.06752652230728358 -0.07055971043932979 -0.07313583543329952 -0.0752090383515793 -0.07673645839728316 -0.07768286964917144 -0.07801855938695682 -0.07772399866421174 -0.07678776878467725 -0.07521099524157056 -0.0730051113901019 -0.07019576574799272 -0.06682019292307206 -0.0629303016009308 -0.05858943105232018 -0.05387436089090273 -0.04887129125151264 -0.043676613636154465 -0.038392089105269284 -0.03312440042758448 -0.027979718995791145 -0.023062306265194482 -0.0184689136435673 -0.01428693591656538 -0.010589240342363186 -0.007432356884975314 -0.004851981057870829 -0.0028608335350340866 -0.0014437435296233438 -0.0005539410049846573 -0.00010943687066316719 0.0 -0.0004872365299320845 -0.0018337167898565283 -0.003943859264409353 -0.0067274302030068895 -0.010098631566493377 -0.013973619878430743 -0.018271625431700397 -0.02291310168072603 -0.02782206645803023 -0.03292380568832331 -0.038147526678370416 -0.043423278569041844 -0.04868474526479936 -0.05386561456778843 -0.058902671871292576 -0.06373200854552609 -0.06829260233543415 -0.07252268488511725 -0.07636388560496297 -0.07975793111151785 -0.08265130164220762 -0.08499229747520541 -0.08673606095620853 -0.08784194657640075 -0.08827870367409611 -0.08802202375794105 -0.08705964334892557 -0.08538889634204137 -0.08302146474525697 -0.07998072134579894 -0.07630582263893138 -0.07204859160542898 -0.06727662886306707 -0.06206948438946822 -0.056520498640815 -0.050732088914580906 -0.044816165804388304 -0.03888854855168878 -0.033068049366662265 -0.027470317875581598 -0.02220599183934155 -0.01737454815619554 -0.013062118340221331 -0.009335964885412124 -0.00624238943651268 -0.0038020791245602214 -0.0020082551201316538 -0.0008238014845065322 -0.00018308495529934893 0.0 -0.0005724740062657631 -0.002141912081399164 -0.004579338555525508 -0.007767767997243626 -0.011598856648063384 -0.0159725502433528 -0.020794124964209862 -0.025975432716658434 -0.031431827724400445 -0.037084296557629626 -0.04285587537775909 -0.048674281584407196 -0.05446784719338216 -0.0601686217542229 -0.06570809460696624 -0.07102085772269927 -0.07604041132948133 -0.08070343796867287 -0.08494589262214915 -0.08870784748937828 -0.09192995021976215 -0.09455871694545122 -0.09654334860489314 -0.09784129930728905 -0.0984153794316134 -0.09823939729666765 -0.09729543151700505 -0.09557931225162213 -0.09309789146444526 -0.08987407854092641 -0.08594386771409811 -0.08136057848462928 -0.07619133589624927 -0.07052012842091676 -0.06444343163101594 -0.05807174907723299 -0.05152418814502195 -0.04492834964824345 -0.03841393924507247 -0.03211121457410162 -0.026144090427359518 -0.0206277225093302 -0.015661865953504966 -0.011328363618921481 -0.007685564578983177 -0.0047664749011056 -0.0025752211386343414 -0.0010875004135758235 -0.0002522153485548175 0.0 -0.0006534678876835239 -0.0024356327555517063 -0.0051872311640032255 -0.008764945117593419 -0.013040088282654197 -0.01789497187853392 -0.023223105482365766 -0.02892533722028548 -0.03491116627837158 -0.04109449812787677 -0.04739581788525531 -0.05373756933576425 -0.060047053412569905 -0.06625160662705015 -0.0722822049740342 -0.0780686831547546 -0.08354403732609895 -0.08863988576031082 -0.09329141342343657 -0.09743318738113069 -0.10100462705035373 -0.10394620724329812 -0.10620530244621627 -0.10773275814819167 -0.10848894375278123 -0.1084406363014473 -0.10756709846220701 -0.10585716879018843 -0.10331512989089288 -0.09995781393943325 -0.09581993286908883 -0.0909508936597687 -0.08541915574808277 -0.07930835585466413 -0.07272020808164206 -0.06576954737356644 -0.058585387575042766 -0.0513046909485458 -0.044071510029713136 -0.03702969469342641 -0.030320519906788045 -0.02407503405379016 -0.018411032050584752 -0.013426108190790879 -0.009195082960030552 -0.0057650000311359325 -0.003154374211734133 -0.001351911105373437 -0.00031986183888016743 0.0 -0.0007306624087008941 -0.002714441841352259 -0.005764236838687813 -0.00971334749352559 -0.01441236325835342 -0.01972864206932167 -0.025542023927240316 -0.03174529844556118 -0.03823932488404066 -0.044934518805851975 -0.05174560601666684 -0.05859408067339836 -0.06540277958945563 -0.07209924006575151 -0.0786103006021922 -0.08486629222265597 -0.09079585263847237 -0.09633085822462835 -0.10140157624723413 -0.10594220648733181 -0.10988643108427215 -0.11317341703020492 -0.11574378417826689 -0.11754592738576955 -0.11853240413392606 -0.11866644221237461 -0.11791871692082778 -0.11627387864826931 -0.11372761048458552 -0.11029291346563591 -0.10599719529306241 -0.1008878973626682 -0.09502919409589373 -0.08850639378487318 -0.08142170963346734 -0.07389682486551763 -0.06606725341099116 -0.05808265168459568 -0.0500996197250121 -0.04227982111520114 -0.03478166435246205 -0.02775694702795547 -0.021342498378976938 -0.015656624739198155 -0.010792212478217154 -0.0068145241858563 -0.003757419200495566 -0.0016241515469280765 -0.0003883477292685412 0.0 -0.0008037719832148732 -0.0029766806544099258 -0.006307534123016469 -0.010606971201209408 -0.01570793527811448 -0.021461653120854515 -0.027737491265557097 -0.034417703362024245 -0.041398175314007135 -0.04858258929090069 -0.0558842616941176 -0.06322007519035355 -0.07051340364399965 -0.07768805199920983 -0.08467218244208165 -0.09139245148509703 -0.09777880951664435 -0.10375896369019312 -0.1092638893368634 -0.11422268948483333 -0.11856865109370464 -0.12223454449756553 -0.12515908661589514 -0.12728272474384048 -0.1285544080646343 -0.12892789747172587 -0.1283687514585506 -0.12685115202422498 -0.12436493915209179 -0.12091280873748086 -0.11651706453133176 -0.11121682968620088 -0.10507395751334438 -0.09816966439203421 -0.09060884820015051 -0.08251542622392292 -0.07403431002321754 -0.06532488585523391 -0.05656024286235099 -0.04791877476761231 -0.03958098010836826 -0.03172000125431483 -0.02449718653814764 -0.018053172567111322 -0.012504007372618203 -0.007934725729055722 -0.004397875347823615 -0.001911246859042177 -0.00045998397777707975 0.0 -0.0008715706383818252 -0.003220780651324715 -0.006813548762578959 -0.011441148640484898 -0.016918531284462218 -0.023084220651424084 -0.02979517657520142 -0.036926928253403414 -0.04436734992116798 -0.0520178017342599 -0.05978646320579376 -0.0675906675022987 -0.07535016722733516 -0.0829906351461893 -0.09043710153685336 -0.09761848704431578 -0.10446135625207476 -0.1108952896657179 -0.11684702883198786 -0.1222464857903303 -0.12702132944057284 -0.13110347425486843 -0.1344241747954101 -0.13692090601726067 -0.13853306166512286 -0.13920918861610604 -0.13890337538985795 -0.13758277931922494 -0.1352246941432532 -0.1318241716755313 -0.1273915454535101 -0.12195969428884211 -0.1155814940266383 -0.10833595874540806 -0.10032479481475487 -0.09167643443675792 -0.08254076556706583 -0.07309016400608158 -0.06351179570092196 -0.054005347563221846 -0.04477314572820372 -0.03601533720076241 -0.027919208621191297 -0.02065365617633148 -0.014359945751568987 -0.009147784571114218 -0.005089743105377963 -0.002220669516287858 -0.0005368579431886341 0.0 -0.0009333721707574434 -0.00344485129082001 -0.007279753619214505 -0.012210376927133552 -0.018037263091112775 -0.024585006860093548 -0.03170211939808896 -0.03925477973928578 -0.04712733904872551 -0.05521521396648255 -0.06342654772404097 -0.07167484602849455 -0.07988191790305718 -0.08797061174710737 -0.09586894924438673 -0.10350315624269289 -0.1108027848983983 -0.1176941278896486 -0.1241060885426129 -0.1299640261450288 -0.13519617580420829 -0.1397279940110824 -0.1434890224994454 -0.1464078574759178 -0.14841944637891413 -0.14946084100796916 -0.14947895371032568 -0.14842721571432865 -0.14627374415303043 -0.14299886214917573 -0.13860340417002903 -0.13310674340596163 -0.12655459953614068 -0.11901680571562803 -0.11059357575377027 -0.10141188146023683 -0.09162890597866673 -0.0814258706910928 -0.07100766099640587 -0.06059354019576357 -0.05041289897655684 -0.04069356971806517 -0.03165512195924281 -0.02349695464256798 -0.01639177640913916 -0.010476374582929018 -0.005847951854395968 -0.002559715408209848 -0.0006212272248432577 0.0 -0.0009888360434288919 -0.003647997173221969 -0.007702817304792225 -0.01291005458036859 -0.019055419445830567 -0.02595363585062614 -0.03344271717969582 -0.0413840349709427 -0.04965506249209746 -0.05815038011229879 -0.06677381729420198 -0.0754407506214359 -0.0840701859769469 -0.09258837656204767 -0.10092113973983705 -0.10899861870504779 -0.11674796263149367 -0.12409896721479487 -0.13097716970825588 -0.1373101216810456 -0.14302095746707708 -0.14803514923226138 -0.15227467227528635 -0.15566522046028108 -0.15813116751987963 -0.15960331964299138 -0.16001489820435652 -0.15930991222154756 -0.15744030206934104 -0.15437486990417681 -0.15009747262886122 -0.14461611585727888 -0.1379616492057934 -0.13019612960448193 -0.12141092473814867 -0.11173293231929164 -0.10132057466034128 -0.09036625482436145 -0.07908883805940166 -0.06773127404255358 -0.056549192809924625 -0.04580413013460118 -0.03574971600829487 -0.026622898426508168 -0.0186309342740952 -0.011944150077951729 -0.006687192789396066 -0.0029360465531788494 -0.0007151509993459676 0.0 -0.0010383354854115797 -0.003828705035379156 -0.008079994700907353 -0.013533823311969942 -0.019965110381707687 -0.027177367435728888 -0.03500265288014089 -0.04329458714112961 -0.05192883229748908 -0.060794983907530784 -0.06979822163539515 -0.0788508564386781 -0.08787535383012098 -0.0967959822188058 -0.10554311454245101 -0.11404518878827483 -0.12223403212691719 -0.13003721202751084 -0.13738409620850425 -0.14419864287066367 -0.15040598670020713 -0.15592577086686096 -0.16067919071971407 -0.1645830673123288 -0.16755742738265628 -0.1695206009811618 -0.17039750390858746 -0.1701160456426849 -0.1686162425474635 -0.1658480774326973 -0.16178134202447977 -0.1564047298973968 -0.14973583550592728 -0.1418206642904672 -0.13274253630946872 -0.12262047616228484 -0.1116151154851843 -0.09992395313342899 -0.08778223460297453 -0.0754534598981606 -0.06322424877596976 -0.05139017380026883 -0.04024589764596753 -0.030068984633001967 -0.02110904547612723 -0.013573990274904465 -0.007622607730265913 -0.003357002059038071 -0.0008208880986513183 0.0 -0.0010815018443164146 -0.003985670561927275 -0.008407056187667222 -0.014076178872689804 -0.020756634762215717 -0.028245193526595467 -0.036365566296990295 -0.04496859378732494 -0.05392424401605509 -0.06312270295120892 -0.07246559720938076 -0.08186840187119131 -0.09125152353744333 -0.1005440666261709 -0.10967511841844102 -0.11857867547586658 -0.12718527479234434 -0.13542778086090212 -0.14323341906324136 -0.15053015432259842 -0.15723920151449616 -0.1632818558681117 -0.16857264952457404 -0.17302666661877958 -0.176553633354206 -0.17906590388325053 -0.18047385319067935 -0.1806947895648102 -0.1796499967400795 -0.17727474151860698 -0.17351709753452657 -0.16834888139942963 -0.1617658884853777 -0.1537989315040386 -0.14451429463906043 -0.1340231219248514 -0.12247994401884661 -0.11008785379207886 -0.09709247894099753 -0.08378048370832882 -0.07046724754920401 -0.05748805257794288 -0.045180432041226716 -0.03387072398277892 -0.023855461808858402 -0.015388768643271353 -0.008668628127723484 -0.003830206401211859 -0.0009404860620119762 0.0 -0.001117749094125788 -0.004116456851312048 -0.008680703639656373 -0.01453048519904251 -0.021422441960313544 -0.029144906959728215 -0.03751807068952354 -0.04638652640623439 -0.05561998295827606 -0.06510447405311537 -0.07474420666642854 -0.08445225845230632 -0.09415377650266966 -0.103776675789359 -0.11325610139511304 -0.1225253860411987 -0.13152150739354637 -0.1401764028542666 -0.14842311327081018 -0.1561875128408699 -0.16339491998564484 -0.1699623650688649 -0.17580562019479293 -0.18083225285903282 -0.18494921806095116 -0.18805707874355493 -0.19005845855479375 -0.1908538930911815 -0.19035149715068084 -0.188464865252059 -0.18512416751630661 -0.18027621870525393 -0.17389674108441122 -0.16599201737673921 -0.15661112821384204 -0.145847453740328 -0.13384842032063907 -0.12081386206967645 -0.10699984358509189 -0.09271050920819214 -0.07829311356114341 -0.06412175639791988 -0.05058383273774817 -0.03805820472533695 -0.026897919053156825 -0.01740955820277472 -0.009839763292710548 -0.004362837196802619 -0.00107620854697998 0.0 -0.001145845136812278 -0.004219495271763978 -0.008897093397416376 -0.014892442265379719 -0.02195445175094728 -0.029867678833712993 -0.038445906884438 -0.047532731153270794 -0.056993160965105545 -0.06671505236198082 -0.07659969215231897 -0.08656445939878861 -0.09653309015123891 -0.10643963793604135 -0.11621883779999005 -0.12581118225547946 -0.1351535719488572 -0.14418519705764105 -0.152838545313942 -0.16104580293660534 -0.16873030086930108 -0.17581328984836092 -0.1822060083682184 -0.1878168849202394 -0.19254455950474306 -0.19628577047996162 -0.19892981238701893 -0.20036753011956523 -0.20048779473731373 -0.19918808244009162 -0.19637348882315497 -0.19196916959574864 -0.18592199650423194 -0.17821445590671758 -0.16886804261042807 -0.15795687788678248 -0.1456103103385158 -0.13202276274811856 -0.11745138505590955 -0.10221757111442822 -0.08669546220154789 -0.07130205248986407 -0.05647561736415715 -0.042656339372498624 -0.03025985900831