# vtk DataFile Version 3.0
vtk output
ASCII
DATASET STRUCTURED_GRID
DIMENSIONS 51 51 1
POINTS 2601 float
0.0 0.0 0.0
0.02 0.0 0.0
0.04 0.0 0.0
0.06 0.0 0.0
0.08 0.0 0.0
0.1 0.0 0.0
0.12 0.0 0.0
0.14 0.0 0.0
0.16 0.0 0.0
0.18 0.0 0.0
0.2 0.0 0.0
0.22 0.0 0.0
0.24 0.0 0.0
0.26 0.0 0.0
0.28 0.0 0.0
0.3 0.0 0.0
0.32 0.0 0.0
0.34 0.0 0.0
0.36 0.0 0.0
0.38 0.0 0.0
0.4 0.0 0.0
0.42 0.0 0.0
0.44 0.0 0.0
0.46 0.0 0.0
0.48 0.0 0.0
0.5 0.0 0.0
0.52 0.0 0.0
0.54 0.0 0.0
0.56 0.0 0.0
0.58 0.0 0.0
0.6 0.0 0.0
0.62 0.0 0.0
0.64 0.0 0.0
0.66 0.0 0.0
0.68 0.0 0.0
0.7000000000000001 0.0 0.0
0.72 0.0 0.0
0.74 0.0 0.0
0.76 0.0 0.0
0.78 0.0 0.0
0.8 0.0 0.0
0.8200000000000001 0.0 0.0
0.84 0.0 0.0
0.86 0.0 0.0
0.88 0.0 0.0
0.9 0.0 0.0
0.92 0.0 0.0
0.9400000000000001 0.0 0.0
0.96 0.0 0.0
0.98 0.0 0.0
1.0 0.0 0.0
0.0 0.02 0.0
0.02 0.02 0.0
0.04 0.02 0.0
0.06 0.02 0.0
0.08 0.02 0.0
0.1 0.02 0.0
0.12 0.02 0.0
0.14 0.02 0.0
0.16 0.02 0.0
0.18 0.02 0.0
0.2 0.02 0.0
0.22 0.02 0.0
0.24 0.02 0.0
0.26 0.02 0.0
0.28 0.02 0.0
0.3 0.02 0.0
0.32 0.02 0.0
0.34 0.02 0.0
0.36 0.02 0.0
0.38 0.02 0.0
0.4 0.02 0.0
0.42 0.02 0.0
0.44 0.02 0.0
0.46 0.02 0.0
0.48 0.02 0.0
0.5 0.02 0.0
0.52 0.02 0.0
0.54 0.02 0.0
0.56 0.02 0.0
0.58 0.02 0.0
0.6 0.02 0.0
0.62 0.02 0.0
0.64 0.02 0.0
0.66 0.02 0.0
0.68 0.02 0.0
0.7000000000000001 0.02 0.0
0.72 0.02 0.0
0.74 0.02 0.0
0.76 0.02 0.0
0.78 0.02 0.0
0.8 0.02 0.0
0.8200000000000001 0.02 0.0
0.84 0.02 0.0
0.86 0.02 0.0
0.88 0.02 0.0
0.9 0.02 0.0
0.92 0.02 0.0
0.9400000000000001 0.02 0.0
0.96 0.02 0.0
0.98 0.02 0.0
1.0 0.02 0.0
0.0 0.04 0.0
0.02 0.04 0.0
0.04 0.04 0.0
0.06 0.04 0.0
0.08 0.04 0.0
0.1 0.04 0.0
0.12 0.04 0.0
0.14 0.04 0.0
0.16 0.04 0.0
0.18 0.04 0.0
0.2 0.04 0.0
0.22 0.04 0.0
0.24 0.04 0.0
0.26 0.04 0.0
0.28 0.04 0.0
0.3 0.04 0.0
0.32 0.04 0.0
0.34 0.04 0.0
0.36 0.04 0.0
0.38 0.04 0.0
0.4 0.04 0.0
0.42 0.04 0.0
0.44 0.04 0.0
0.46 0.04 0.0
0.48 0.04 0.0
0.5 0.04 0.0
0.52 0.04 0.0
0.54 0.04 0.0
0.56 0.04 0.0
0.58 0.04 0.0
0.6 0.04 0.0
0.62 0.04 0.0
0.64 0.04 0.0
0.66 0.04 0.0
0.68 0.04 0.0
0.7000000000000001 0.04 0.0
0.72 0.04 0.0
0.74 0.04 0.0
0.76 0.04 0.0
0.78 0.04 0.0
0.8 0.04 0.0
0.8200000000000001 0.04 0.0
0.84 0.04 0.0
0.86 0.04 0.0
0.88 0.04 0.0
0.9 0.04 0.0
0.92 0.04 0.0
0.9400000000000001 0.04 0.0
0.96 0.04 0.0
0.98 0.04 0.0
1.0 0.04 0.0
0.0 0.06 0.0
0.02 0.06 0.0
0.04 0.06 0.0
0.06 0.06 0.0
0.08 0.06 0.0
0.1 0.06 0.0
0.12 0.06 0.0
0.14 0.06 0.0
0.16 0.06 0.0
0.18 0.06 0.0
0.2 0.06 0.0
0.22 0.06 0.0
0.24 0.06 0.0
0.26 0.06 0.0
0.28 0.06 0.0
0.3 0.06 0.0
0.32 0.06 0.0
0.34 0.06 0.0
0.36 0.06 0.0
0.38 0.06 0.0
0.4 0.06 0.0
0.42 0.06 0.0
0.44 0.06 0.0
0.46 0.06 0.0
0.48 0.06 0.0
0.5 0.06 0.0
0.52 0.06 0.0
0.54 0.06 0.0
0.56 0.06 0.0
0.58 0.06 0.0
0.6 0.06 0.0
0.62 0.06 0.0
0.64 0.06 0.0
0.66 0.06 0.0
0.68 0.06 0.0
0.7000000000000001 0.06 0.0
0.72 0.06 0.0
0.74 0.06 0.0
0.76 0.06 0.0
0.78 0.06 0.0
0.8 0.06 0.0
0.8200000000000001 0.06 0.0
0.84 0.06 0.0
0.86 0.06 0.0
0.88 0.06 0.0
0.9 0.06 0.0
0.92 0.06 0.0
0.9400000000000001 0.06 0.0
0.96 0.06 0.0
0.98 0.06 0.0
1.0 0.06 0.0
0.0 0.08 0.0
0.02 0.08 0.0
0.04 0.08 0.0
0.06 0.08 0.0
0.08 0.08 0.0
0.1 0.08 0.0
0.12 0.08 0.0
0.14 0.08 0.0
0.16 0.08 0.0
0.18 0.08 0.0
0.2 0.08 0.0
0.22 0.08 0.0
0.24 0.08 0.0
0.26 0.08 0.0
0.28 0.08 0.0
0.3 0.08 0.0
0.32 0.08 0.0
0.34 0.08 0.0
0.36 0.08 0.0
0.38 0.08 0.0
0.4 0.08 0.0
0.42 0.08 0.0
0.44 0.08 0.0
0.46 0.08 0.0
0.48 0.08 0.0
0.5 0.08 0.0
0.52 0.08 0.0
0.54 0.08 0.0
0.56 0.08 0.0
0.58 0.08 0.0
0.6 0.08 0.0
0.62 0.08 0.0
0.64 0.08 0.0
0.66 0.08 0.0
0.68 0.08 0.0
0.7000000000000001 0.08 0.0
0.72 0.08 0.0
0.74 0.08 0.0
0.76 0.08 0.0
0.78 0.08 0.0
0.8 0.08 0.0
0.8200000000000001 0.08 0.0
0.84 0.08 0.0
0.86 0.08 0.0
0.88 0.08 0.0
0.9 0.08 0.0
0.92 0.08 0.0
0.9400000000000001 0.08 0.0
0.96 0.08 0.0
0.98 0.08 0.0
1.0 0.08 0.0
0.0 0.1 0.0
0.02 0.1 0.0
0.04 0.1 0.0
0.06 0.1 0.0
0.08 0.1 0.0
0.1 0.1 0.0
0.12 0.1 0.0
0.14 0.1 0.0
0.16 0.1 0.0
0.18 0.1 0.0
0.2 0.1 0.0
0.22 0.1 0.0
0.24 0.1 0.0
0.26 0.1 0.0
0.28 0.1 0.0
0.3 0.1 0.0
0.32 0.1 0.0
0.34 0.1 0.0
0.36 0.1 0.0
0.38 0.1 0.0
0.4 0.1 0.0
0.42 0.1 0.0
0.44 0.1 0.0
0.46 0.1 0.0
0.48 0.1 0.0
0.5 0.1 0.0
0.52 0.1 0.0
0.54 0.1 0.0
0.56 0.1 0.0
0.58 0.1 0.0
0.6 0.1 0.0
0.62 0.1 0.0
0.64 0.1 0.0
0.66 0.1 0.0
0.68 0.1 0.0
0.7000000000000001 0.1 0.0
0.72 0.1 0.0
0.74 0.1 0.0
0.76 0.1 0.0
0.78 0.1 0.0
0.8 0.1 0.0
0.8200000000000001 0.1 0.0
0.84 0.1 0.0
0.86 0.1 0.0
0.88 0.1 0.0
0.9 0.1 0.0
0.92 0.1 0.0
0.9400000000000001 0.1 0.0
0.96 0.1 0.0
0.98 0.1 0.0
1.0 0.1 0.0
0.0 0.12 0.0
0.02 0.12 0.0
0.04 0.12 0.0
0.06 0.12 0.0
0.08 0.12 0.0
0.1 0.12 0.0
0.12 0.12 0.0
0.14 0.12 0.0
0.16 0.12 0.0
0.18 0.12 0.0
0.2 0.12 0.0
0.22 0.12 0.0
0.24 0.12 0.0
0.26 0.12 0.0
0.28 0.12 0.0
0.3 0.12 0.0
0.32 0.12 0.0
0.34 0.12 0.0
0.36 0.12 0.0
0.38 0.12 0.0
0.4 0.12 0.0
0.42 0.12 0.0
0.44 0.12 0.0
0.46 0.12 0.0
0.48 0.12 0.0
0.5 0.12 0.0
0.52 0.12 0.0
0.54 0.12 0.0
0.56 0.12 0.0
0.58 0.12 0.0
0.6 0.12 0.0
0.62 0.12 0.0
0.64 0.12 0.0
0.66 0.12 0.0
0.68 0.12 0.0
0.7000000000000001 0.12 0.0
0.72 0.12 0.0
0.74 0.12 0.0
0.76 0.12 0.0
0.78 0.12 0.0
0.8 0.12 0.0
0.8200000000000001 0.12 0.0
0.84 0.12 0.0
0.86 0.12 0.0
0.88 0.12 0.0
0.9 0.12 0.0
0.92 0.12 0.0
0.9400000000000001 0.12 0.0
0.96 0.12 0.0
0.98 0.12 0.0
1.0 0.12 0.0
0.0 0.14 0.0
0.02 0.14 0.0
0.04 0.14 0.0
0.06 0.14 0.0
0.08 0.14 0.0
0.1 0.14 0.0
0.12 0.14 0.0
0.14 0.14 0.0
0.16 0.14 0.0
0.18 0.14 0.0
0.2 0.14 0.0
0.22 0.14 0.0
0.24 0.14 0.0
0.26 0.14 0.0
0.28 0.14 0.0
0.3 0.14 0.0
0.32 0.14 0.0
0.34 0.14 0.0
0.36 0.14 0.0
0.38 0.14 0.0
0.4 0.14 0.0
0.42 0.14 0.0
0.44 0.14 0.0
0.46 0.14 0.0
0.48 0.14 0.0
0.5 0.14 0.0
0.52 0.14 0.0
0.54 0.14 0.0
0.56 0.14 0.0
0.58 0.14 0.0
0.6 0.14 0.0
0.62 0.14 0.0
0.64 0.14 0.0
0.66 0.14 0.0
0.68 0.14 0.0
0.7000000000000001 0.14 0.0
0.72 0.14 0.0
0.74 0.14 0.0
0.76 0.14 0.0
0.78 0.14 0.0
0.8 0.14 0.0
0.8200000000000001 0.14 0.0
0.84 0.14 0.0
0.86 0.14 0.0
0.88 0.14 0.0
0.9 0.14 0.0
0.92 0.14 0.0
0.9400000000000001 0.14 0.0
0.96 0.14 0.0
0.98 0.14 0.0
1.0 0.14 0.0
0.0 0.16 0.0
0.02 0.16 0.0
0.04 0.16 0.0
0.06 0.16 0.0
0.08 0.16 0.0
0.1 0.16 0.0
0.12 0.16 0.0
0.14 0.16 0.0
0.16 0.16 0.0
0.18 0.16 0.0
0.2 0.16 0.0
0.22 0.16 0.0
0.24 0.16 0.0
0.26 0.16 0.0
0.28 0.16 0.0
0.3 0.16 0.0
0.32 0.16 0.0
0.34 0.16 0.0
0.36 0.16 0.0
0.38 0.16 0.0
0.4 0.16 0.0
0.42 0.16 0.0
0.44 0.16 0.0
0.46 0.16 0.0
0.48 0.16 0.0
0.5 0.16 0.0
0.52 0.16 0.0
0.54 0.16 0.0
0.56 0.16 0.0
0.58 0.16 0.0
0.6 0.16 0.0
0.62 0.16 0.0
0.64 0.16 0.0
0.66 0.16 0.0
0.68 0.16 0.0
0.7000000000000001 0.16 0.0
0.72 0.16 0.0
0.74 0.16 0.0
0.76 0.16 0.0
0.78 0.16 0.0
0.8 0.16 0.0
0.8200000000000001 0.16 0.0
0.84 0.16 0.0
0.86 0.16 0.0
0.88 0.16 0.0
0.9 0.16 0.0
0.92 0.16 0.0
0.9400000000000001 0.16 0.0
0.96 0.16 0.0
0.98 0.16 0.0
1.0 0.16 0.0
0.0 0.18 0.0
0.02 0.18 0.0
0.04 0.18 0.0
0.06 0.18 0.0
0.08 0.18 0.0
0.1 0.18 0.0
0.12 0.18 0.0
0.14 0.18 0.0
0.16 0.18 0.0
0.18 0.18 0.0
0.2 0.18 0.0
0.22 0.18 0.0
0.24 0.18 0.0
0.26 0.18 0.0
0.28 0.18 0.0
0.3 0.18 0.0
0.32 0.18 0.0
0.34 0.18 0.0
0.36 0.18 0.0
0.38 0.18 0.0
0.4 0.18 0.0
0.42 0.18 0.0
0.44 0.18 0.0
0.46 0.18 0.0
0.48 0.18 0.0
0.5 0.18 0.0
0.52 0.18 0.0
0.54 0.18 0.0
0.56 0.18 0.0
0.58 0.18 0.0
0.6 0.18 0.0
0.62 0.18 0.0
0.64 0.18 0.0
0.66 0.18 0.0
0.68 0.18 0.0
0.7000000000000001 0.18 0.0
0.72 0.18 0.0
0.74 0.18 0.0
0.76 0.18 0.0
0.78 0.18 0.0
0.8 0.18 0.0
0.8200000000000001 0.18 0.0
0.84 0.18 0.0
0.86 0.18 0.0
0.88 0.18 0.0
0.9 0.18 0.0
0.92 0.18 0.0
0.9400000000000001 0.18 0.0
0.96 0.18 0.0
0.98 0.18 0.0
1.0 0.18 0.0
0.0 0.2 0.0
0.02 0.2 0.0
0.04 0.2 0.0
0.06 0.2 0.0
0.08 0.2 0.0
0.1 0.2 0.0
0.12 0.2 0.0
0.14 0.2 0.0
0.16 0.2 0.0
0.18 0.2 0.0
0.2 0.2 0.0
0.22 0.2 0.0
0.24 0.2 0.0
0.26 0.2 0.0
0.28 0.2 0.0
0.3 0.2 0.0
0.32 0.2 0.0
0.34 0.2 0.0
0.36 0.2 0.0
0.38 0.2 0.0
0.4 0.2 0.0
0.42 0.2 0.0
0.44 0.2 0.0
0.46 0.2 0.0
0.48 0.2 0.0
0.5 0.2 0.0
0.52 0.2 0.0
0.54 0.2 0.0
0.56 0.2 0.0
0.58 0.2 0.0
0.6 0.2 0.0
0.62 0.2 0.0
0.64 0.2 0.0
0.66 0.2 0.0
0.68 0.2 0.0
0.7000000000000001 0.2 0.0
0.72 0.2 0.0
0.74 0.2 0.0
0.76 0.2 0.0
0.78 0.2 0.0
0.8 0.2 0.0
0.8200000000000001 0.2 0.0
0.84 0.2 0.0
0.86 0.2 0.0
0.88 0.2 0.0
0.9 0.2 0.0
0.92 0.2 0.0
0.9400000000000001 0.2 0.0
0.96 0.2 0.0
0.98 0.2 0.0
1.0 0.2 0.0
0.0 0.22 0.0
0.02 0.22 0.0
0.04 0.22 0.0
0.06 0.22 0.0
0.08 0.22 0.0
0.1 0.22 0.0
0.12 0.22 0.0
0.14 0.22 0.0
0.16 0.22 0.0
0.18 0.22 0.0
0.2 0.22 0.0
0.22 0.22 0.0
0.24 0.22 0.0
0.26 0.22 0.0
0.28 0.22 0.0
0.3 0.22 0.0
0.32 0.22 0.0
0.34 0.22 0.0
0.36 0.22 0.0
0.38 0.22 0.0
0.4 0.22 0.0
0.42 0.22 0.0
0.44 0.22 0.0
0.46 0.22 0.0
0.48 0.22 0.0
0.5 0.22 0.0
0.52 0.22 0.0
0.54 0.22 0.0
0.56 0.22 0.0
0.58 0.22 0.0
0.6 0.22 0.0
0.62 0.22 0.0
0.64 0.22 0.0
0.66 0.22 0.0
0.68 0.22 0.0
0.7000000000000001 0.22 0.0
0.72 0.22 0.0
0.74 0.22 0.0
0.76 0.22 0.0
0.78 0.22 0.0
0.8 0.22 0.0
0.8200000000000001 0.22 0.0
0.84 0.22 0.0
0.86 0.22 0.0
0.88 0.22 0.0
0.9 0.22 0.0
0.92 0.22 0.0
0.9400000000000001 0.22 0.0
0.96 0.22 0.0
0.98 0.22 0.0
1.0 0.22 0.0
0.0 0.24 0.0
0.02 0.24 0.0
0.04 0.24 0.0
0.06 0.24 0.0
0.08 0.24 0.0
0.1 0.24 0.0
0.12 0.24 0.0
0.14 0.24 0.0
0.16 0.24 0.0
0.18 0.24 0.0
0.2 0.24 0.0
0.22 0.24 0.0
0.24 0.24 0.0
0.26 0.24 0.0
0.28 0.24 0.0
0.3 0.24 0.0
0.32 0.24 0.0
0.34 0.24 0.0
0.36 0.24 0.0
0.38 0.24 0.0
0.4 0.24 0.0
0.42 0.24 0.0
0.44 0.24 0.0
0.46 0.24 0.0
0.48 0.24 0.0
0.5 0.24 0.0
0.52 0.24 0.0
0.54 0.24 0.0
0.56 0.24 0.0
0.58 0.24 0.0
0.6 0.24 0.0
0.62 0.24 0.0
0.64 0.24 0.0
0.66 0.24 0.0
0.68 0.24 0.0
0.7000000000000001 0.24 0.0
0.72 0.24 0.0
0.74 0.24 0.0
0.76 0.24 0.0
0.78 0.24 0.0
0.8 0.24 0.0
0.8200000000000001 0.24 0.0
0.84 0.24 0.0
0.86 0.24 0.0
0.88 0.24 0.0
0.9 0.24 0.0
0.92 0.24 0.0
0.9400000000000001 0.24 0.0
0.96 0.24 0.0
0.98 0.24 0.0
1.0 0.24 0.0
0.0 0.26 0.0
0.02 0.26 0.0
0.04 0.26 0.0
0.06 0.26 0.0
0.08 0.26 0.0
0.1 0.26 0.0
0.12 0.26 0.0
0.14 0.26 0.0
0.16 0.26 0.0
0.18 0.26 0.0
0.2 0.26 0.0
0.22 0.26 0.0
0.24 0.26 0.0
0.26 0.26 0.0
0.28 0.26 0.0
0.3 0.26 0.0
0.32 0.26 0.0
0.34 0.26 0.0
0.36 0.26 0.0
0.38 0.26 0.0
0.4 0.26 0.0
0.42 0.26 0.0
0.44 0.26 0.0
0.46 0.26 0.0
0.48 0.26 0.0
[...]
CELL_DATA 2500
SCALARS u float 1
LOOKUP_TABLE u_cell_table
0.00021433394393806777 0.00021484520250567612 0.00014869726560176122 1.0798613210820433e-05 -0.00020656735105689336 -0.0004930875973321728 -0.0008244972918217621 -0.0011727480219858974 -0.0015164829342275087 -0.0018471419325768283 -0.002168187139708782 -0.002489073239394286 -0.0028180010569797383 -0.00315728025998307 -0.0035026092765844128 -0.0038454045108462544 -0.00417593002473549 -0.004485686448263896 -0.004768237142980963 -0.005019069109925806 -0.00523482630945929 -0.005412745254077698 -0.0055500432394104335 -0.005643819468041906 -0.005690942466093507 -0.005688563299020568 -0.005634356599210377 -0.0055270983178024174 -0.005366571388773317 -0.005153887867018158 -0.004891274641610886 -0.004582500611041316 -0.004232608742073158 -0.003848183007979855 -0.0034368143442026038 -0.003007240708903467 -0.002568757130652367 -0.0021313412111588254 -0.001705017371050828 -0.0012998983193793256 -0.0009254520207176134 -0.0005902985208785695 -0.00030105949171082554 -6.11653922708808e-05 0.00013245079521914625 0.00029602956123707733 0.0004754988936261843 0.0007824260095087242 0.001453886525468964 0.0 0.0001288305456555699 7.950738919961062e-05 -0.00011356840116826525 -0.0004683632212370693 -0.0009913101458343054 -0.001665187434123835 -0.0024554403955933625 -0.003323038473047514 -0.004235763920918185 -0.005173600424286452 -0.006127595359089588 -0.00709420896450504 -0.008069390812853261 -0.009044803658514561 -0.010007605521968305 -0.010942021926867138 -0.011831938689536924 -0.012662240933180144 -0.01341984896861984 -0.01409318728337845 -0.014672320717352928 -0.015147883324875594 -0.015511435709056444 -0.015754509370576444 -0.0158697464190519 -0.015850404482543917 -0.015692179707098984 -0.015392497088548259 -0.014952239676569506 -0.014374505502272684 -0.013666403237925857 -0.012837554582192209 -0.011901869384806082 -0.010875579772077842 -0.00977877602639626 -0.008633089997095455 -0.007463054547056341 -0.006293576882679975 -0.005151041469812343 -0.004060630111881013 -0.0030470250495711073 -0.0021314813095598332 -0.001331737746437659 -0.0006584892459874975 -0.00011415869361292979 0.0003100296392970426 0.0006286735834848179 0.0008331005855323184 0.0007857484400228526 0.0 -8.183184619993477e-05 -0.00023657547162746014 -0.0005957365991739894 -0.0011869550512095084 -0.0020028545865262994 -0.0030162063833563896 -0.004189962876721418 -0.0054880701718665855 -0.006881261452441388 -0.00834700574704963 -0.00986585221887732 -0.011417984415272371 -0.01298140660987824 -0.014532628684543187 -0.016047919327270718 -0.01750499361780577 -0.0188832600841709 -0.020164220938080877 -0.021330552112875854 -0.02236638520582402 -0.023256273327208966 -0.023985922830068538 -0.024541143113162783 -0.0249092941386269 -0.025078545158929166 -0.02504018322068487 -0.024787707995454773 -0.024319228512777763 -0.023635864673246194 -0.02274422433077899 -0.021654394151486296 -0.020382523851798416 -0.018948271041716314 -0.017377217652688126 -0.015697795451508408 -0.013943471230460178 -0.012149248471873531 -0.010353479468438676 -0.0085940531116456 -0.006909749922451241 -0.005336248517090366 -0.003906916089058033 -0.0026488391692790782 -0.0015833832315484088 -0.0007236864018411153 -7.842485577639314e-05 0.00034149958360628205 0.0005057914800744164 0.00036489066096173677 0.0 -0.00023321418762771887 -0.0005163842322979244 -0.0010696754840486117 -0.0019197611172845483 -0.003041392500732354 -0.0043968823228554815 -0.005948656280033062 -0.007664113042556601 -0.009515065703528641 -0.011473576328621895 -0.01350876182570699 -0.01558614345250453 -0.0176700894716481 -0.01972637011276807 -0.02172449385491234 -0.023637592019707776 -0.025442243332923945 -0.027116604734476336 -0.02864032818554909 -0.029992998486323114 -0.03115514732982277 -0.032106939008966696 -0.03283018062595189 -0.0333072168614894 -0.03352400521879577 -0.03346875265896793 -0.03313523282918747 -0.032520422418440956 -0.031627950477321885 -0.030465151502833073 -0.02904692055720432 -0.02739217684357583 -0.025527744385653563 -0.02348412943138737 -0.021299228548444436 -0.019013497594407368 -0.01667323399491149 -0.014325247355042458 -0.012019581469721895 -0.00980395420413659 -0.007725868647006143 -0.005827193588200944 -0.004145906058714442 -0.0027117415073781687 -0.0015487780713066227 -0.0006741894796973249 -0.00010255876413635834 0.00015905069018454278 0.0001398387047317684 0.0 -0.0002509737734146342 -0.0006942394008840222 -0.0014795634662849266 -0.0026157647415051225 -0.00406289416730237 -0.0057759862732770315 -0.007717208504733073 -0.009854246887285076 -0.01215447396118131 -0.014580583783070613 -0.017089708541620813 -0.019636717290926736 -0.022178053385759566 -0.024675172947178876 -0.027094793666577265 -0.029408562322636365 -0.0315905016640975 -0.033616360063131984 -0.035461400227041286 -0.037101365558401316 -0.03851097060407775 -0.03966634311146765 -0.040543753236667285 -0.0411232600841422 -0.04138703470305933 -0.0413233769172262 -0.04092375009204338 -0.04018695371574315 -0.039115360986049154 -0.03771984364940676 -0.03601546159258962 -0.034026735731795606 -0.03178249645805858 -0.02932110362269154 -0.02668448468653115 -0.023922970339320334 -0.021088616331828465 -0.01823942310477963 -0.015432258729615428 -0.01272637793441702 -0.010176374416155397 -0.007835086116553192 -0.005747264852861264 -0.003952311918215127 -0.002479498458418287 -0.0013504233821716727 -0.0005736026834864023 -0.00013805243204948592 1.1011802336109694e-05 0.0 -0.00016197839459577783 -0.0008037935349685243 -0.001865535261864898 -0.003316319367864352 -0.005106258066694001 -0.007187338493046026 -0.009520883439927977 -0.012071057381447413 -0.014797777296258984 -0.01765398711495557 -0.02058861165118279 -0.023551106929874107 -0.026496038867595797 -0.029384094182054937 -0.032182067374171536 -0.03485995902278761 -0.037389877572156296 -0.03974308749183949 -0.0418907890755835 -0.04380231432082685 -0.04544806218132166 -0.04679810137040823 -0.04782643853555357 -0.04850888358662613 -0.04882774147421852 -0.04876808715300148 -0.04832273372294529 -0.047487463175182563 -0.04626714124799711 -0.04467044775983012 -0.042716808306453094 -0.0404301352428848 -0.03784589655280106 -0.03500380510292478 -0.031954634477870385 -0.028751970285304414 -0.025458420643533278 -0.022136754776563322 -0.018855322808351588 -0.015679044986311796 -0.012673974369272055 -0.009898756728028231 -0.007408484800495596 -0.0052472911366398005 -0.003451409836054147 -0.0020424830792974405 -0.0010274298070618018 -0.00038817709901642545 -7.403598359085746e-05 0.0 -8.794864235345078e-05 -0.0009489050400373366 -0.002305561403934176 -0.004075308505484765 -0.006201808939607858 -0.008638258689628052 -0.011344513334909372 -0.014279456285174909 -0.017395270590672036 -0.020638451655690244 -0.02395408990299507 -0.027291236057306077 -0.030604885569440722 -0.03385670108280986 -0.037012275652995995 -0.04003985499827493 -0.042906769405345796 -0.04557985136973284 -0.048023253437286015 -0.050201758616921374 -0.05207938890632935 -0.05362425851481868 -0.05480599107561174 -0.05560086721225543 -0.05598729173999664 -0.055951441798442386 -0.05548150524296812 -0.054574908995865146 -0.05323207698210582 -0.05146504579329927 -0.04929010775497838 -0.04673683464722651 -0.04383937643274294 -0.04064545617367651 -0.037206507554483646 -0.03358619435235713 -0.02984968671247983 -0.02607136510262912 -0.022323702012457078 -0.018683918804706642 -0.015223078845475461 -0.012011667232851925 -0.009109603142406775 -0.006570726639666015 -0.004434060475001917 -0.0027265427891748598 -0.001454806579982173 -0.0006051620153261499 -0.00013804874250754884 0.0 -0.00016070393551073008 -0.001220260563285715 -0.0028363794137409594 -0.004887615951404115 -0.007313694736749927 -0.010070516093893887 -0.013115769460620399 -0.01640175635931169 -0.01987414546878605 -0.02347503719009454 -0.027148567024856105 -0.03084383642800487 -0.03451663473554017 -0.03812729755126541 -0.041639606207489806 -0.04501681067695477 -0.048221609069445316 -0.05121341987061301 -0.05395188140572299 -0.05639546829626118 -0.05850695501937055 -0.06025038661752042 -0.06159653142237241 -0.06251737587403773 -0.06299237066649697 -0.0630016276033003 -0.06253428767053833 -0.06158119363254556 -0.06014525887452023 -0.05823289457284872 -0.05586516798303167 -0.053067549354124575 -0.04988135595874397 -0.04635211131859573 -0.04254078945445299 -0.03851106278200288 -0.03433980037418033 -0.030103634232973638 -0.02588827565339911 -0.02177499208699153 -0.0178485246471577 -0.014184249945534168 -0.010854666066008566 -0.007917952351847871 -0.005422903597798253 -0.0033992911477116567 -0.0018611931176209912 -0.0008004191498323538 -0.00019142438004270698 0.0 -0.0004042120004294612 -0.0016015757816286499 -0.00339745209300493 -0.00566769548726991 -0.008348637294405128 -0.01139493159319105 -0.014757744166807252 -0.01838044223432327 -0.022200797330599185 -0.026156659897850616 -0.030189783066091387 -0.03424863808921276 -0.038287118362683885 -0.04226382291975685 -0.0461378518897365 -0.049868251172973076 -0.05341056252247954 -0.05672019627295094 -0.059750993968121696 -0.06246126362704055 -0.06481042898029124 -0.06676465495598292 -0.06829027151148309 -0.06936041180186836 -0.06994717384092143 -0.07003109210426106 -0.06959271230199808 -0.06862465461557568 -0.06712174903439484 -0.06509437404620769 -0.06255656094506995 -0.05954003216470434 -0.05608067534637353 -0.052232819972286466 -0.04805436714943077 -0.04362053163739699 -0.03900797560454702 -0.0343073300748484 -0.02960688364911406 -0.02500343062405932 -0.020586314572413732 -0.01644645273414704 -0.012661662865350542 -0.009303891570404827 -0.006426720157237558 -0.004071029981647116 -0.002255872596980353 -0.0009839522192360757 -0.00023895840454172347 0.0 -0.0006882722788240155 -0.0019578573161463677 -0.003863106449295813 -0.006311481406144058 -0.00923332690277086 -0.012571123350622071 -0.01626172390511211 -0.02023451702376657 -0.024417381155641613 -0.028741720800762264 -0.03314645567540332 -0.03757761991423767 -0.04198802043789629 -0.046332818118109194 -0.050568272619485766 -0.054647339170709956 -0.05852253886564698 -0.06214431318773776 -0.06546756531644231 -0.06844817527615503 -0.0710487959642023 -0.07323118436705892 -0.07496300327533299 -0.07620889998603902 -0.07694102537686737 -0.07712952615932499 -0.0767562253265581 -0.07580334791440563 -0.07426901588332288 -0.07215359032516551 -0.06947639941689182 -0.06626018562531909 -0.06254866534597182 -0.05838943027358785 -0.053851363130206595 -0.04900623800886355 -0.04394501616061262 -0.03875862410444977 -0.033552381784357745 -0.028426719313565833 -0.023489357805054022 -0.018836986626959304 -0.014565177192071066 -0.010752196069952754 -0.007466969182137254 -0.004756370976819674 -0.002652091096127514 -0.0011632945938405254 -0.0002842701896807506 0.0 -0.0008188675605324843 -0.0021397468947816967 -0.004151754746232169 -0.006796686654104947 -0.009992175309146641 -0.013656774629715585 -0.017704959754857343 -0.02204966168354094 -0.026608007173042562 -0.03130666054503039 -0.036082324699362144 -0.04088158634574607 -0.04565613543349885 -0.05036055432457239 -0.0549467085075382 -0.059365704772435135 -0.06356585764155123 -0.06749963198194339 -0.07112028541984006 -0.07438793342569082 -0.07726093152914747 -0.07970260650066072 -0.08167119177650896 -0.08313121929435546 -0.08404299890743533 -0.08437778571957852 -0.0841050221757857 -0.08320982636324757 -0.08167747020362515 -0.07951276320933624 -0.07672235611774744 -0.07333568639670549 -0.06938555919696529 -0.06492954405105755 -0.06002899488107475 -0.054769619396109484 -0.0492393249843151 -0.04354687420103731 -0.03779921348478935 -0.032117492030275016 -0.026614861908763755 -0.021409629653269882 -0.016604839330843026 -0.012298843515524446 -0.008568231245703805 -0.005476551340054435 -0.003062294669825544 -0.001346862625191613 -0.00032937421054526103 0.0 -0.0007101845058892169 -0.0021246502287027027 -0.004315430298921572 -0.007222025227669445 -0.010742440369750403 -0.014766352207104965 -0.01918576287355357 -0.023899889872176314 -0.028820756015163807 -0.03387442968137096 -0.03900088418002758 -0.04414868514215437 -0.049271590275928284 -0.05432153146869822 -0.05924929671256795 -0.06400193343043827 -0.0685299846627786 -0.07278455735643448 -0.07672384171544279 -0.08030382517064816 -0.08348477544885442 -0.0862199636744222 -0.08846763329791885 -0.09017951757170954 -0.09131733151558759 -0.09183851201400495 -0.09171544669831033 -0.09091797579515393 -0.08943527759458264 -0.08725591394103026 -0.08439212445850425 -0.0808579750632448 -0.07669489478329063 -0.07194807336106328 -0.06669169192262672 -0.061003873969063045 -0.054990173688217216 -0.04875759926243587 -0.042435202044379894 -0.03614800084527591 -0.030034060433658638 -0.024219593270528212 -0.018832628633097308 -0.013981018900738279 -0.009763421117052442 -0.0062521141950977605 -0.003502275073494801 -0.0015412747948132105 -0.00037705987479944557 0.0 -0.0004827215860277025 -0.002059015663869268 -0.004512488817591119 -0.007732731204534909 -0.011594606976535703 -0.015966632005426598 -0.02072719940189612 -0.02577209409049252 -0.03101572908222701 -0.03639069663186606 -0.04184192825403157 -0.04732210990524946 -0.05278326990762738 -0.058175959624033456 -0.06344595253419437 -0.06854163985031943 -0.07341182389879658 -0.07801290507527055 -0.0822993012255659 -0.08622954528539399 -0.08975375572747307 -0.09282576943858123 -0.09539071129742813 -0.09740257739889041 -0.09880855100700761 -0.09956966022748663 -0.09964122576594595 -0.09899695214904342 -0.0976066265576565 -0.09546356552071408 -0.09256021784306198 -0.08891779990243638 -0.0845600191975456 -0.07954315997158003 -0.07392820106043077 -0.0678096022615426 -0.06128622180816091 -0.054487181231726425 -0.0475421627723389 -0.04060320449536532 -0.03381541835018926 -0.02733441461315028 -0.021299144687115298 -0.015845573167847897 -0.01108381757821746 -0.007109184069972028 -0.003985643666101998 -0.0017551742396604707 -0.0004288071403214638 0.0 -0.0003745574737937262 -0.0021412657544466725 -0.004871595403188466 -0.008387635814399724 -0.01254447169282539 -0.01720371675048003 -0.02224456204363264 -0.02756842042192364 -0.033098598027578356 -0.03877410431901598 -0.04454426294035719 -0.050359312930686934 -0.056168122506623015 -0.06191407527832106 -0.06754239158819185 -0.07299883747966716 -0.07823775854110138 -0.08321260766559713 -0.08788154012021564 -0.09219361308883758 -0.0961006010080386 -0.09954359631313753 -0.10247137758177366 -0.10482346711819518 -0.10655190550522098 -0.10759964584657739 -0.107926446829115 -0.10748416386302202 -0.10624701383369224 -0.10418452695921582 -0.10129503870207705 -0.09757664892168512 -0.09306211683004029 -0.08778816542483829 -0.08182980268302834 -0.0752683602821725 -0.06822320974574622 -0.06081886800751016 -0.053212332045418476 -0.04555988003403924 -0.038039080230961184 -0.030816676934713193 -0.024065530457895334 -0.017935831399100106 -0.012568199072963585 -0.008070783566753444 -0.0045299098827102265 -0.001995049922259524 -0.00048753264303833086 0.0 -0.0005251751977079844 -0.0024381148664415174 -0.005365700731858197 -0.009093506419535257 -0.01346395944121465 -0.01834306878220538 -0.02361789759026923 -0.029198505520341474 -0.03501306105071937 -0.041002553853253555 -0.04711121460149138 -0.05328311000654695 -0.059457140302738166 -0.06557384849587368 -0.0715749664983804 -0.0774123374223019 -0.08303895165469484 -0.08841395080373342 -0.09348756374173577 -0.09821208864205179 -0.10252750806995697 -0.1063802861004824 -0.10970541867187479 -0.11244903823006007 -0.11454488923228247 -0.11594155870799679 -0.11657535212249831 -0.11640291896192281 -0.1153714867543871 -0.11345578725295938 -0.1106261296373002 -0.1068877965470734 -0.10224746933658783 -0.09675301415897883 -0.09045879432351724 -0.08346355300083311 -0.0758748203338488 -0.0678425122480589 -0.05952257730228465 -0.05110454187649361 -0.04277516789414458 -0.03473948433849211 -0.027186362099397378 -0.020304069382155537 -0.01425064331813067 -0.009165860081558093 -0.005149282209420113 -0.002270146589166484 -0.00055457498323108 0.0 -0.0008304957905851265 -0.002808326797660029 -0.00582543797507926 -0.009682845894055034 -0.014217223474386255 -0.019296634202457363 -0.02481224448660103 -0.03067391816533372 -0.03680677159810904 -0.04314273920594 -0.04961667371671121 -0.05616040595358324 -0.06270835159724295 -0.06919739555361044 -0.0755764772931663 -0.08179850229926805 -0.08782477751042118 -0.09360877419877987 -0.09910577026972583 -0.10425748274804267 -0.10901093447663336 -0.11329983337624888 -0.11706775924261267 -0.12024300565771899 -0.12276668220561088 -0.12456324944160431 -0.12557495611500075 -0.12572934925205198 -0.12497908249483496 -0.12326698146605049 -0.1205694009672309 -0.11685960537945662 -0.11215261954275127 -0.10646780216187898 -0.09987284359063384 -0.09244585232887399 -0.08431567319774305 -0.07562324559872934 -0.06655561690791387 -0.05730654996818905 -0.048102737396513565 -0.03916473194848698 -0.03072568744818313 -0.02299525555665619 -0.01617291478850102 -0.010418486398993473 -0.005862621903038062 -0.0025870029245540437 -0.0006331272247346966 0.0 -0.0010253199787441168 -0.0030270437035355034 -0.006097133420858577 -0.010076578247478507 -0.014796972681199266 -0.02011791075729567 -0.025921611151950744 -0.0321086791590391 -0.038591548179119195 -0.045290990146041606 -0.0521293123813787 -0.059033902210087336 -0.0659364986665375 -0.07278284003857197 -0.07952573420499295 -0.08612916929163937 -0.09255122361625172 -0.09875196156821388 -0.10467709620434988 -0.11027656518109855 -0.11548565266091643 -0.1202485530495523 -0.12449199834517548 -0.12815379325503426 -0.13115119428570174 -0.13341655200323987 -0.13486217271118048 -0.13542237984406746 -0.13501550767789708 -0.13359052187242157 -0.1310871288476313 -0.12748500007944832 -0.12276339773837835 -0.11695082429301869 -0.11008489757541164 -0.10225940950967133 -0.09358409473474828 -0.08422578984110549 -0.07436735787751972 -0.06424031155546006 -0.05408277380683063 -0.04416262301116863 -0.03473610745185633 -0.026063003336904436 -0.018369620334215783 -0.01185933369179797 -0.0066845261812227465 -0.0029555603843656447 -0.0007244249231124899 0.0 -0.0009400345930197724 -0.0030073617881108553 -0.006200038047455768 -0.01037024599632586 -0.015342249952027188 -0.02095807679914589 -0.02708491905327126 -0.03360936193083054 -0.04043393339094604 -0.04746956093663302 -0.054636330817676444 -0.06186094900574072 -0.06908548512595093 -0.07626172685701868 -0.08335548427397134 -0.09032936698789983 -0.09714879212245436 -0.10376469731124253 -0.11013140120566318 -0.11618788569710903 -0.12188156621436935 -0.12714122412999196 -0.1319055660277673 -0.136089746174334 -0.13962158909383213 -0.14240397579629832 -0.1443584995622758 -0.1453844420429436 -0.14540790493805542 -0.14433844622258263 -0.14212179809778672 -0.1386961827091007 -0.13404678753924673 -0.12816319896546133 -0.12109270490818629 -0.11289874895885434 -0.10370940284024328 -0.09367575768964823 -0.08301200882053947 -0.07195248046615652 -0.060780809814423034 -0.04978548856314953 -0.03927812105928111 -0.029550118833898804 -0.020883229473000243 -0.013512699957373038 -0.007634941811535144 -0.0033825205062610773 -0.0008319291866648007 0.0 -0.0006834357128930065 -0.0028992240062804086 -0.006317078060417138 -0.010747668643895359 -0.016004859491475336 -0.021918417332679345 -0.028344338487102945 -0.03516405286722825 -0.04227583760535179 -0.04959224459193866 -0.057034734685998824 -0.06454042106349538 -0.07205762404614656 -0.07955107649196567 -0.08698574349017414 -0.09433123776330476 -0.1015436652112527 -0.10858219565937696 -0.11539076873388948 -0.12192187572516597 -0.12810938678226097 -0.13389676253597993 -0.13920212092952342 -0.1439544281329501 -0.14805369481437797 -0.1514155714584014 -0.15392752154798067 -0.15549975431296992 -0.15601831925467616 -0.15540038810274692 -0.15354685560370632 -0.15040058604764342 -0.14590088648689342 -0.1400420878284794 -0.13283040272250451 -0.1243392030980606 -0.11466739492928708 -0.10398744193360011 -0.09250326388320887 -0.080487