# vtk DataFile Version 3.0
vtk output
ASCII
DATASET STRUCTURED_GRID
DIMENSIONS 51 51 1
POINTS 2601 float
0.0 0.0 0.0
0.02 0.0 0.0
0.04 0.0 0.0
0.06 0.0 0.0
0.08 0.0 0.0
0.1 0.0 0.0
0.12 0.0 0.0
0.14 0.0 0.0
0.16 0.0 0.0
0.18 0.0 0.0
0.2 0.0 0.0
0.22 0.0 0.0
0.24 0.0 0.0
0.26 0.0 0.0
0.28 0.0 0.0
0.3 0.0 0.0
0.32 0.0 0.0
0.34 0.0 0.0
0.36 0.0 0.0
0.38 0.0 0.0
0.4 0.0 0.0
0.42 0.0 0.0
0.44 0.0 0.0
0.46 0.0 0.0
0.48 0.0 0.0
0.5 0.0 0.0
0.52 0.0 0.0
0.54 0.0 0.0
0.56 0.0 0.0
0.58 0.0 0.0
0.6 0.0 0.0
0.62 0.0 0.0
0.64 0.0 0.0
0.66 0.0 0.0
0.68 0.0 0.0
0.7000000000000001 0.0 0.0
0.72 0.0 0.0
0.74 0.0 0.0
0.76 0.0 0.0
0.78 0.0 0.0
0.8 0.0 0.0
0.8200000000000001 0.0 0.0
0.84 0.0 0.0
0.86 0.0 0.0
0.88 0.0 0.0
0.9 0.0 0.0
0.92 0.0 0.0
0.9400000000000001 0.0 0.0
0.96 0.0 0.0
0.98 0.0 0.0
1.0 0.0 0.0
0.0 0.02 0.0
0.02 0.02 0.0
0.04 0.02 0.0
0.06 0.02 0.0
0.08 0.02 0.0
0.1 0.02 0.0
0.12 0.02 0.0
0.14 0.02 0.0
0.16 0.02 0.0
0.18 0.02 0.0
0.2 0.02 0.0
0.22 0.02 0.0
0.24 0.02 0.0
0.26 0.02 0.0
0.28 0.02 0.0
0.3 0.02 0.0
0.32 0.02 0.0
0.34 0.02 0.0
0.36 0.02 0.0
0.38 0.02 0.0
0.4 0.02 0.0
0.42 0.02 0.0
0.44 0.02 0.0
0.46 0.02 0.0
0.48 0.02 0.0
0.5 0.02 0.0
0.52 0.02 0.0
0.54 0.02 0.0
0.56 0.02 0.0
0.58 0.02 0.0
0.6 0.02 0.0
0.62 0.02 0.0
0.64 0.02 0.0
0.66 0.02 0.0
0.68 0.02 0.0
0.7000000000000001 0.02 0.0
0.72 0.02 0.0
0.74 0.02 0.0
0.76 0.02 0.0
0.78 0.02 0.0
0.8 0.02 0.0
0.8200000000000001 0.02 0.0
0.84 0.02 0.0
0.86 0.02 0.0
0.88 0.02 0.0
0.9 0.02 0.0
0.92 0.02 0.0
0.9400000000000001 0.02 0.0
0.96 0.02 0.0
0.98 0.02 0.0
1.0 0.02 0.0
0.0 0.04 0.0
0.02 0.04 0.0
0.04 0.04 0.0
0.06 0.04 0.0
0.08 0.04 0.0
0.1 0.04 0.0
0.12 0.04 0.0
0.14 0.04 0.0
0.16 0.04 0.0
0.18 0.04 0.0
0.2 0.04 0.0
0.22 0.04 0.0
0.24 0.04 0.0
0.26 0.04 0.0
0.28 0.04 0.0
0.3 0.04 0.0
0.32 0.04 0.0
0.34 0.04 0.0
0.36 0.04 0.0
0.38 0.04 0.0
0.4 0.04 0.0
0.42 0.04 0.0
0.44 0.04 0.0
0.46 0.04 0.0
0.48 0.04 0.0
0.5 0.04 0.0
0.52 0.04 0.0
0.54 0.04 0.0
0.56 0.04 0.0
0.58 0.04 0.0
0.6 0.04 0.0
0.62 0.04 0.0
0.64 0.04 0.0
0.66 0.04 0.0
0.68 0.04 0.0
0.7000000000000001 0.04 0.0
0.72 0.04 0.0
0.74 0.04 0.0
0.76 0.04 0.0
0.78 0.04 0.0
0.8 0.04 0.0
0.8200000000000001 0.04 0.0
0.84 0.04 0.0
0.86 0.04 0.0
0.88 0.04 0.0
0.9 0.04 0.0
0.92 0.04 0.0
0.9400000000000001 0.04 0.0
0.96 0.04 0.0
0.98 0.04 0.0
1.0 0.04 0.0
0.0 0.06 0.0
0.02 0.06 0.0
0.04 0.06 0.0
0.06 0.06 0.0
0.08 0.06 0.0
0.1 0.06 0.0
0.12 0.06 0.0
0.14 0.06 0.0
0.16 0.06 0.0
0.18 0.06 0.0
0.2 0.06 0.0
0.22 0.06 0.0
0.24 0.06 0.0
0.26 0.06 0.0
0.28 0.06 0.0
0.3 0.06 0.0
0.32 0.06 0.0
0.34 0.06 0.0
0.36 0.06 0.0
0.38 0.06 0.0
0.4 0.06 0.0
0.42 0.06 0.0
0.44 0.06 0.0
0.46 0.06 0.0
0.48 0.06 0.0
0.5 0.06 0.0
0.52 0.06 0.0
0.54 0.06 0.0
0.56 0.06 0.0
0.58 0.06 0.0
0.6 0.06 0.0
0.62 0.06 0.0
0.64 0.06 0.0
0.66 0.06 0.0
0.68 0.06 0.0
0.7000000000000001 0.06 0.0
0.72 0.06 0.0
0.74 0.06 0.0
0.76 0.06 0.0
0.78 0.06 0.0
0.8 0.06 0.0
0.8200000000000001 0.06 0.0
0.84 0.06 0.0
0.86 0.06 0.0
0.88 0.06 0.0
0.9 0.06 0.0
0.92 0.06 0.0
0.9400000000000001 0.06 0.0
0.96 0.06 0.0
0.98 0.06 0.0
1.0 0.06 0.0
0.0 0.08 0.0
0.02 0.08 0.0
0.04 0.08 0.0
0.06 0.08 0.0
0.08 0.08 0.0
0.1 0.08 0.0
0.12 0.08 0.0
0.14 0.08 0.0
0.16 0.08 0.0
0.18 0.08 0.0
0.2 0.08 0.0
0.22 0.08 0.0
0.24 0.08 0.0
0.26 0.08 0.0
0.28 0.08 0.0
0.3 0.08 0.0
0.32 0.08 0.0
0.34 0.08 0.0
0.36 0.08 0.0
0.38 0.08 0.0
0.4 0.08 0.0
0.42 0.08 0.0
0.44 0.08 0.0
0.46 0.08 0.0
0.48 0.08 0.0
0.5 0.08 0.0
0.52 0.08 0.0
0.54 0.08 0.0
0.56 0.08 0.0
0.58 0.08 0.0
0.6 0.08 0.0
0.62 0.08 0.0
0.64 0.08 0.0
0.66 0.08 0.0
0.68 0.08 0.0
0.7000000000000001 0.08 0.0
0.72 0.08 0.0
0.74 0.08 0.0
0.76 0.08 0.0
0.78 0.08 0.0
0.8 0.08 0.0
0.8200000000000001 0.08 0.0
0.84 0.08 0.0
0.86 0.08 0.0
0.88 0.08 0.0
0.9 0.08 0.0
0.92 0.08 0.0
0.9400000000000001 0.08 0.0
0.96 0.08 0.0
0.98 0.08 0.0
1.0 0.08 0.0
0.0 0.1 0.0
0.02 0.1 0.0
0.04 0.1 0.0
0.06 0.1 0.0
0.08 0.1 0.0
0.1 0.1 0.0
0.12 0.1 0.0
0.14 0.1 0.0
0.16 0.1 0.0
0.18 0.1 0.0
0.2 0.1 0.0
0.22 0.1 0.0
0.24 0.1 0.0
0.26 0.1 0.0
0.28 0.1 0.0
0.3 0.1 0.0
0.32 0.1 0.0
0.34 0.1 0.0
0.36 0.1 0.0
0.38 0.1 0.0
0.4 0.1 0.0
0.42 0.1 0.0
0.44 0.1 0.0
0.46 0.1 0.0
0.48 0.1 0.0
0.5 0.1 0.0
0.52 0.1 0.0
0.54 0.1 0.0
0.56 0.1 0.0
0.58 0.1 0.0
0.6 0.1 0.0
0.62 0.1 0.0
0.64 0.1 0.0
0.66 0.1 0.0
0.68 0.1 0.0
0.7000000000000001 0.1 0.0
0.72 0.1 0.0
0.74 0.1 0.0
0.76 0.1 0.0
0.78 0.1 0.0
0.8 0.1 0.0
0.8200000000000001 0.1 0.0
0.84 0.1 0.0
0.86 0.1 0.0
0.88 0.1 0.0
0.9 0.1 0.0
0.92 0.1 0.0
0.9400000000000001 0.1 0.0
0.96 0.1 0.0
0.98 0.1 0.0
1.0 0.1 0.0
0.0 0.12 0.0
0.02 0.12 0.0
0.04 0.12 0.0
0.06 0.12 0.0
0.08 0.12 0.0
0.1 0.12 0.0
0.12 0.12 0.0
0.14 0.12 0.0
0.16 0.12 0.0
0.18 0.12 0.0
0.2 0.12 0.0
0.22 0.12 0.0
0.24 0.12 0.0
0.26 0.12 0.0
0.28 0.12 0.0
0.3 0.12 0.0
0.32 0.12 0.0
0.34 0.12 0.0
0.36 0.12 0.0
0.38 0.12 0.0
0.4 0.12 0.0
0.42 0.12 0.0
0.44 0.12 0.0
0.46 0.12 0.0
0.48 0.12 0.0
0.5 0.12 0.0
0.52 0.12 0.0
0.54 0.12 0.0
0.56 0.12 0.0
0.58 0.12 0.0
0.6 0.12 0.0
0.62 0.12 0.0
0.64 0.12 0.0
0.66 0.12 0.0
0.68 0.12 0.0
0.7000000000000001 0.12 0.0
0.72 0.12 0.0
0.74 0.12 0.0
0.76 0.12 0.0
0.78 0.12 0.0
0.8 0.12 0.0
0.8200000000000001 0.12 0.0
0.84 0.12 0.0
0.86 0.12 0.0
0.88 0.12 0.0
0.9 0.12 0.0
0.92 0.12 0.0
0.9400000000000001 0.12 0.0
0.96 0.12 0.0
0.98 0.12 0.0
1.0 0.12 0.0
0.0 0.14 0.0
0.02 0.14 0.0
0.04 0.14 0.0
0.06 0.14 0.0
0.08 0.14 0.0
0.1 0.14 0.0
0.12 0.14 0.0
0.14 0.14 0.0
0.16 0.14 0.0
0.18 0.14 0.0
0.2 0.14 0.0
0.22 0.14 0.0
0.24 0.14 0.0
0.26 0.14 0.0
0.28 0.14 0.0
0.3 0.14 0.0
0.32 0.14 0.0
0.34 0.14 0.0
0.36 0.14 0.0
0.38 0.14 0.0
0.4 0.14 0.0
0.42 0.14 0.0
0.44 0.14 0.0
0.46 0.14 0.0
0.48 0.14 0.0
0.5 0.14 0.0
0.52 0.14 0.0
0.54 0.14 0.0
0.56 0.14 0.0
0.58 0.14 0.0
0.6 0.14 0.0
0.62 0.14 0.0
0.64 0.14 0.0
0.66 0.14 0.0
0.68 0.14 0.0
0.7000000000000001 0.14 0.0
0.72 0.14 0.0
0.74 0.14 0.0
0.76 0.14 0.0
0.78 0.14 0.0
0.8 0.14 0.0
0.8200000000000001 0.14 0.0
0.84 0.14 0.0
0.86 0.14 0.0
0.88 0.14 0.0
0.9 0.14 0.0
0.92 0.14 0.0
0.9400000000000001 0.14 0.0
0.96 0.14 0.0
0.98 0.14 0.0
1.0 0.14 0.0
0.0 0.16 0.0
0.02 0.16 0.0
0.04 0.16 0.0
0.06 0.16 0.0
0.08 0.16 0.0
0.1 0.16 0.0
0.12 0.16 0.0
0.14 0.16 0.0
0.16 0.16 0.0
0.18 0.16 0.0
0.2 0.16 0.0
0.22 0.16 0.0
0.24 0.16 0.0
0.26 0.16 0.0
0.28 0.16 0.0
0.3 0.16 0.0
0.32 0.16 0.0
0.34 0.16 0.0
0.36 0.16 0.0
0.38 0.16 0.0
0.4 0.16 0.0
0.42 0.16 0.0
0.44 0.16 0.0
0.46 0.16 0.0
0.48 0.16 0.0
0.5 0.16 0.0
0.52 0.16 0.0
0.54 0.16 0.0
0.56 0.16 0.0
0.58 0.16 0.0
0.6 0.16 0.0
0.62 0.16 0.0
0.64 0.16 0.0
0.66 0.16 0.0
0.68 0.16 0.0
0.7000000000000001 0.16 0.0
0.72 0.16 0.0
0.74 0.16 0.0
0.76 0.16 0.0
0.78 0.16 0.0
0.8 0.16 0.0
0.8200000000000001 0.16 0.0
0.84 0.16 0.0
0.86 0.16 0.0
0.88 0.16 0.0
0.9 0.16 0.0
0.92 0.16 0.0
0.9400000000000001 0.16 0.0
0.96 0.16 0.0
0.98 0.16 0.0
1.0 0.16 0.0
0.0 0.18 0.0
0.02 0.18 0.0
0.04 0.18 0.0
0.06 0.18 0.0
0.08 0.18 0.0
0.1 0.18 0.0
0.12 0.18 0.0
0.14 0.18 0.0
0.16 0.18 0.0
0.18 0.18 0.0
0.2 0.18 0.0
0.22 0.18 0.0
0.24 0.18 0.0
0.26 0.18 0.0
0.28 0.18 0.0
0.3 0.18 0.0
0.32 0.18 0.0
0.34 0.18 0.0
0.36 0.18 0.0
0.38 0.18 0.0
0.4 0.18 0.0
0.42 0.18 0.0
0.44 0.18 0.0
0.46 0.18 0.0
0.48 0.18 0.0
0.5 0.18 0.0
0.52 0.18 0.0
0.54 0.18 0.0
0.56 0.18 0.0
0.58 0.18 0.0
0.6 0.18 0.0
0.62 0.18 0.0
0.64 0.18 0.0
0.66 0.18 0.0
0.68 0.18 0.0
0.7000000000000001 0.18 0.0
0.72 0.18 0.0
0.74 0.18 0.0
0.76 0.18 0.0
0.78 0.18 0.0
0.8 0.18 0.0
0.8200000000000001 0.18 0.0
0.84 0.18 0.0
0.86 0.18 0.0
0.88 0.18 0.0
0.9 0.18 0.0
0.92 0.18 0.0
0.9400000000000001 0.18 0.0
0.96 0.18 0.0
0.98 0.18 0.0
1.0 0.18 0.0
0.0 0.2 0.0
0.02 0.2 0.0
0.04 0.2 0.0
0.06 0.2 0.0
0.08 0.2 0.0
0.1 0.2 0.0
0.12 0.2 0.0
0.14 0.2 0.0
0.16 0.2 0.0
0.18 0.2 0.0
0.2 0.2 0.0
0.22 0.2 0.0
0.24 0.2 0.0
0.26 0.2 0.0
0.28 0.2 0.0
0.3 0.2 0.0
0.32 0.2 0.0
0.34 0.2 0.0
0.36 0.2 0.0
0.38 0.2 0.0
0.4 0.2 0.0
0.42 0.2 0.0
0.44 0.2 0.0
0.46 0.2 0.0
0.48 0.2 0.0
0.5 0.2 0.0
0.52 0.2 0.0
0.54 0.2 0.0
0.56 0.2 0.0
0.58 0.2 0.0
0.6 0.2 0.0
0.62 0.2 0.0
0.64 0.2 0.0
0.66 0.2 0.0
0.68 0.2 0.0
0.7000000000000001 0.2 0.0
0.72 0.2 0.0
0.74 0.2 0.0
0.76 0.2 0.0
0.78 0.2 0.0
0.8 0.2 0.0
0.8200000000000001 0.2 0.0
0.84 0.2 0.0
0.86 0.2 0.0
0.88 0.2 0.0
0.9 0.2 0.0
0.92 0.2 0.0
0.9400000000000001 0.2 0.0
0.96 0.2 0.0
0.98 0.2 0.0
1.0 0.2 0.0
0.0 0.22 0.0
0.02 0.22 0.0
0.04 0.22 0.0
0.06 0.22 0.0
0.08 0.22 0.0
0.1 0.22 0.0
0.12 0.22 0.0
0.14 0.22 0.0
0.16 0.22 0.0
0.18 0.22 0.0
0.2 0.22 0.0
0.22 0.22 0.0
0.24 0.22 0.0
0.26 0.22 0.0
0.28 0.22 0.0
0.3 0.22 0.0
0.32 0.22 0.0
0.34 0.22 0.0
0.36 0.22 0.0
0.38 0.22 0.0
0.4 0.22 0.0
0.42 0.22 0.0
0.44 0.22 0.0
0.46 0.22 0.0
0.48 0.22 0.0
0.5 0.22 0.0
0.52 0.22 0.0
0.54 0.22 0.0
0.56 0.22 0.0
0.58 0.22 0.0
0.6 0.22 0.0
0.62 0.22 0.0
0.64 0.22 0.0
0.66 0.22 0.0
0.68 0.22 0.0
0.7000000000000001 0.22 0.0
0.72 0.22 0.0
0.74 0.22 0.0
0.76 0.22 0.0
0.78 0.22 0.0
0.8 0.22 0.0
0.8200000000000001 0.22 0.0
0.84 0.22 0.0
0.86 0.22 0.0
0.88 0.22 0.0
0.9 0.22 0.0
0.92 0.22 0.0
0.9400000000000001 0.22 0.0
0.96 0.22 0.0
0.98 0.22 0.0
1.0 0.22 0.0
0.0 0.24 0.0
0.02 0.24 0.0
0.04 0.24 0.0
0.06 0.24 0.0
0.08 0.24 0.0
0.1 0.24 0.0
0.12 0.24 0.0
0.14 0.24 0.0
0.16 0.24 0.0
0.18 0.24 0.0
0.2 0.24 0.0
0.22 0.24 0.0
0.24 0.24 0.0
0.26 0.24 0.0
0.28 0.24 0.0
0.3 0.24 0.0
0.32 0.24 0.0
0.34 0.24 0.0
0.36 0.24 0.0
0.38 0.24 0.0
0.4 0.24 0.0
0.42 0.24 0.0
0.44 0.24 0.0
0.46 0.24 0.0
0.48 0.24 0.0
0.5 0.24 0.0
0.52 0.24 0.0
0.54 0.24 0.0
0.56 0.24 0.0
0.58 0.24 0.0
0.6 0.24 0.0
0.62 0.24 0.0
0.64 0.24 0.0
0.66 0.24 0.0
0.68 0.24 0.0
0.7000000000000001 0.24 0.0
0.72 0.24 0.0
0.74 0.24 0.0
0.76 0.24 0.0
0.78 0.24 0.0
0.8 0.24 0.0
0.8200000000000001 0.24 0.0
0.84 0.24 0.0
0.86 0.24 0.0
0.88 0.24 0.0
0.9 0.24 0.0
0.92 0.24 0.0
0.9400000000000001 0.24 0.0
0.96 0.24 0.0
0.98 0.24 0.0
1.0 0.24 0.0
0.0 0.26 0.0
0.02 0.26 0.0
0.04 0.26 0.0
0.06 0.26 0.0
0.08 0.26 0.0
0.1 0.26 0.0
0.12 0.26 0.0
0.14 0.26 0.0
0.16 0.26 0.0
0.18 0.26 0.0
0.2 0.26 0.0
0.22 0.26 0.0
0.24 0.26 0.0
0.26 0.26 0.0
0.28 0.26 0.0
0.3 0.26 0.0
0.32 0.26 0.0
0.34 0.26 0.0
0.36 0.26 0.0
0.38 0.26 0.0
0.4 0.26 0.0
0.42 0.26 0.0
0.44 0.26 0.0
0.46 0.26 0.0
0.48 0.26 0.0
[...]
CELL_DATA 2500
SCALARS u float 1
LOOKUP_TABLE u_cell_table
9.732840921661425e-05 1.7645124389361602e-05 -7.912829869305944e-05 -0.00018761821379330648 -0.00031592431649225 -0.0004636584621937897 -0.0006292293306674665 -0.000818422518771516 -0.001043172539397291 -0.0013136174836263323 -0.001630075270282724 -0.0019802027951777946 -0.0023426507543688065 -0.0026947286876608076 -0.0030198024436971904 -0.003311002681280456 -0.003570280525095047 -0.0038042357503413446 -0.004019238522397183 -0.0042180048299216314 -0.004398601041905261 -0.0045556277278537855 -0.004682529093827383 -0.004773755575530195 -0.004825850714730013 -0.00483728644497846 -0.00480759680819084 -0.004736626451562384 -0.004624344155878578 -0.00447111180739242 -0.00427800169996013 -0.00404695298443226 -0.003780816424554916 -0.0034834173887942407 -0.0031595681617294143 -0.0028149614262168365 -0.0024560058870536734 -0.002089800588103363 -0.0017241611552985627 -0.0013674295734044577 -0.0010279898121374838 -0.0007137332862735879 -0.0004316565497210666 -0.00018691108480461103 1.9542602288769094e-05 0.00019689675974679676 0.0003780420736035013 0.0006500096687532383 0.0012119992366191237 0.0 5.52536178757815e-05 -7.655630251786544e-07 -0.00019517608907833296 -0.0005149449726033809 -0.0009404875799129051 -0.0014517609714697864 -0.0020341350085623256 -0.002682724764346522 -0.0033991405144378423 -0.004182948267797596 -0.005024399156810529 -0.005902689955598556 -0.006790213499113917 -0.007659755766248848 -0.00849061731173403 -0.009270999192928717 -0.00999645439240796 -0.010666088374583963 -0.011278700190859045 -0.011830395844795567 -0.012314152261890695 -0.01272092658879396 -0.013041447463188102 -0.013267735161171447 -0.01339376637474833 -0.013415269226969588 -0.013329220205638126 -0.013133609013056475 -0.012827721803192589 -0.012412623816942287 -0.011891561623929344 -0.011270100848661653 -0.010556219499988142 -0.009760319288105378 -0.008895182538171235 -0.007975698358414524 -0.00701864818608593 -0.006042544600324762 -0.00506747720280199 -0.00411450204986013 -0.0032047669897939516 -0.0023585300021032743 -0.0015942011270205997 -0.0009268309162562779 -0.00036594343295197085 8.644674953992721e-05 0.0004330065574322426 0.0006579796170050746 0.0006420452815632687 0.0 -1.1662809773049558e-05 -0.00013280223899140903 -0.0004567627502110337 -0.0009842091270525597 -0.0016848340727711989 -0.0025308211122605268 -0.003503247850525303 -0.004588954801410196 -0.005773784465153236 -0.007037255822929164 -0.008351733738492266 -0.009686308805319446 -0.011012446469591252 -0.012307979253994817 -0.013557615464117077 -0.01475055376225016 -0.0158772171962892 -0.01692698285533407 -0.017887608006102923 -0.018745952199698285 -0.019489143547879083 -0.020105544550079405 -0.020585186712991182 -0.02091969435855108 -0.021101875853169586 -0.021125438849605806 -0.02098511428537619 -0.020677328255731472 -0.020200990276881544 -0.019558146523937288 -0.018754197359725652 -0.017798026888104692 -0.016701991745835226 -0.015481993607835176 -0.014157237705748872 -0.012750026276500953 -0.011285447962321556 -0.009791273748282009 -0.00829738838793365 -0.0068349642746635235 -0.005435289306047318 -0.004128867501773341 -0.0029442477397645644 -0.0019068610078581973 -0.0010380621528107438 -0.00035635606183223654 0.00011692955222249209 0.00034546078824722863 0.00027806662117740047 0.0 -2.1861696855230678e-05 -0.00029469198603951716 -0.0008152576142143445 -0.0015755000029969563 -0.00254735042941782 -0.0037068571087689496 -0.00503639812913168 -0.006515821785016417 -0.008116047176692297 -0.009799253802152868 -0.011524965109836863 -0.01325762190482908 -0.014971064814047056 -0.01664781211246379 -0.01827456904532881 -0.01983732002094889 -0.021318819897841793 -0.022699137215655408 -0.02395798492891705 -0.025076971016350497 -0.026040669407336993 -0.02683640330306915 -0.027453367260247042 -0.02788166983993864 -0.028111895036216417 -0.028135310953610777 -0.02794482652202203 -0.027536087313863207 -0.02690845975531903 -0.0260653516283798 -0.025014379952796383 -0.023767266341509934 -0.022340062758530312 -0.020753022594247016 -0.019030600519034095 -0.01720102594191708 -0.015296304309388654 -0.01335172009642344 -0.011405281367475224 -0.00949638106288491 -0.007664864609629296 -0.005949821216543719 -0.004388634709250745 -0.003015635760210022 -0.0018616920920412746 -0.0009545460109944509 -0.00032005525007794156 2.1249592544928793e-05 7.938402406705881e-05 0.0 -3.5560896798994215e-05 -0.00048039618276732565 -0.0012141395646430042 -0.002210087540160231 -0.0034478871812796113 -0.004910798176934648 -0.006579086633318886 -0.008421270702869514 -0.01039289420733035 -0.012443979968308374 -0.014529455525136245 -0.016616007219806796 -0.018681870465578294 -0.02071101566459277 -0.02268626861403843 -0.024585605040350154 -0.026382911832713126 -0.028051526792540166 -0.02956766716706956 -0.03091189760536077 -0.032068477613058644 -0.03302376866416808 -0.03376476936302091 -0.03427857746917365 -0.03455268251456805 -0.03457611421475492 -0.03434068244718871 -0.03384220211707813 -0.033080896258286786 -0.032061645867776024 -0.030793740568393596 -0.029291225058744222 -0.027572863622096138 -0.025662544516874157 -0.023588844188995393 -0.021385182277578053 -0.019089254021011033 -0.01674293825834365 -0.01439091553545949 -0.012079799262859037 -0.009856588492108742 -0.007767899312840245 -0.005858259257514101 -0.004169073975068719 -0.00273723276660114 -0.0015943054985006098 -0.0007637421277718453 -0.0002533788508730311 -3.656705744727124e-05 0.0 -0.00010459775587329069 -0.0006927754335778128 -0.0016134248861814195 -0.002830383506636191 -0.004328538445198137 -0.0060909201322812264 -0.00808670803104542 -0.010267904863553484 -0.012576569661508873 -0.014957590272405225 -0.017368694078317093 -0.019782069470501155 -0.022178212979909972 -0.02453727468998557 -0.026833677503979785 -0.029036407975297888 -0.031113313291626057 -0.03303564246550053 -0.034780072923657986 -0.03632775875314599 -0.037662040173131434 -0.03876646175060307 -0.03962422019613516 -0.040218674161398967 -0.04053473788538578 -0.04056014308420041 -0.0402867300115826 -0.03971080287468739 -0.0388334786338888 -0.03766029078393552 -0.0362016596130305 -0.03447285905768999 -0.03249493285881752 -0.030294377357603347 -0.027903648438872025 -0.02536035661177956 -0.022707641425266347 -0.01999280651383619 -0.01726685325408378 -0.01458243942510011 -0.011993345946215966 -0.009552422372190679 -0.007310611956558742 -0.0053146691331705884 -0.0036060881502889383 -0.002218496866668844 -0.0011746065886163758 -0.0004796071993137225 -0.00011317886676165642 0.0 -0.00020644566462808787 -0.000898766238086432 -0.0019778599949336275 -0.0034087237757152227 -0.005170316951942759 -0.007231847994527764 -0.009542902949343072 -0.012038827817923276 -0.014654698960673621 -0.017338294747160365 -0.0200542852791509 -0.02277866667487643 -0.025488802609129654 -0.02815623359428078 -0.030746024758331155 -0.03322139085677626 -0.03554918503725389 -0.03770254239146874 -0.03965971768989741 -0.04140108161589688 -0.04290655463050176 -0.044155074489032976 -0.04512549653178022 -0.045798412828557636 -0.04615743225659283 -0.04619036043195754 -0.04588927689046555 -0.04525090168491737 -0.04427604711312815 -0.04297027147161194 -0.04134377225588609 -0.039412836455347836 -0.03719967486005502 -0.03473356876329949 -0.032049815790211114 -0.02919054477026501 -0.02620318667918128 -0.0231407785141853 -0.020059477113015995 -0.017018384246361904 -0.014076967725491057 -0.011294602501112637 -0.008727570162742346 -0.006428205062316 -0.004441958395963407 -0.0028058924056570617 -0.0015448767352955832 -0.0006687002191602755 -0.00016951778843671316 0.0 -0.0002854654817381671 -0.0010642580722615327 -0.002297606659147211 -0.003949784306692243 -0.0059807155392678805 -0.008334971470273053 -0.010941137490600475 -0.01372458984750095 -0.01662260349672639 -0.01959125374931521 -0.022601027709108476 -0.025626003936330913 -0.028634874794128316 -0.031589096242812024 -0.03444758949364026 -0.037173099620751784 -0.03973552327971316 -0.04211059994326316 -0.044276124933181844 -0.04620862330564641 -0.047882723123366236 -0.04927253647699538 -0.05035414200439464 -0.051107043021666534 -0.051515172443068566 -0.05156644092392057 -0.05125292182243301 -0.05057007114433735 -0.04951764335320844 -0.04809950271102162 -0.04632562413376333 -0.044211994271775315 -0.04178260407651295 -0.039068241920158744 -0.0361079059315906 -0.032946806121557724 -0.029637614506304793 -0.026237623711873884 -0.022809310920273135 -0.019416956589669906 -0.016127003185559038 -0.01300430575206027 -0.010111856848779233 -0.007507029275025646 -0.00524099008743817 -0.0033550185917352255 -0.0018794264839251287 -0.0008309959479429204 -0.00021422197111793325 0.0 -0.00031546310022041637 -0.0011891045113773674 -0.002591464069029844 -0.004473630247439652 -0.006768866064952771 -0.009396055857078483 -0.012269836552677743 -0.015315935036381394 -0.018480504404985706 -0.02172733510640487 -0.025026494846996625 -0.028343494536411072 -0.031635957433282146 -0.03485821851789074 -0.03796861812376336 -0.04093371826896071 -0.043726996699056574 -0.04632422626084052 -0.048699151574790385 -0.05082249810243031 -0.05266374534341816 -0.05419442817387107 -0.055390021639493824 -0.05623086912625006 -0.05670104485428005 -0.05678809833921088 -0.05648185393047747 -0.0557756119256706 -0.054665925109294675 -0.053155228765751725 -0.051251695918564495 -0.04897213530237236 -0.04634064035148933 -0.04339090429483928 -0.04016358454399635 -0.03670854683303345 -0.03308153235938629 -0.029346030377268247 -0.02556895491595375 -0.02182209419106976 -0.018177378276038395 -0.014707672827310747 -0.011481766414738246 -0.008564718779550524 -0.006013208880132414 -0.0038754885941476615 -0.0021877880931866355 -0.0009753018790121084 -0.0002517961439592114 0.0 -0.00031528197312625736 -0.001299637578178007 -0.0028824741321203623 -0.004989645221005927 -0.00752847343481329 -0.010400226220607073 -0.013516705335639818 -0.016811704572861186 -0.02024023339570995 -0.023767048928479608 -0.0273538288512803 -0.03095385867053614 -0.03451617889293291 -0.03799388638576652 -0.04134958559198767 -0.044554387947118815 -0.04758249660795725 -0.050405661428092295 -0.052991475267901024 -0.055305295491056936 -0.05731436292434686 -0.058990331087957086 -0.06031032355388296 -0.0612551070408551 -0.06180817262405063 -0.06195385001703182 -0.061678704382823135 -0.060971317280620566 -0.059825680904815055 -0.05824095673981247 -0.05622526528650747 -0.053794030146938426 -0.05097342036734695 -0.047797062445737316 -0.04430946477240315 -0.040561858692260984 -0.03661583216545498 -0.032538080141588765 -0.02840343964051323 -0.02428877529227551 -0.020275401206320827 -0.01644244170064111 -0.012868469892064282 -0.009625129726298707 -0.0067782096932110375 -0.004382280334873915 -0.002481932807802166 -0.0011091056190638453 -0.0002853979515010955 0.0 -0.00031678313692665736 -0.001417542364397364 -0.0031758465788423985 -0.00548868991702906 -0.008244043184295499 -0.011336808707969324 -0.014684457718037884 -0.018229604269028404 -0.02192927863766553 -0.025740130674605812 -0.029610434579864193 -0.03348307425710739 -0.0373047176795621 -0.04103289969274662 -0.04463580525183098 -0.04808623471215272 -0.051354661479502406 -0.054406447997830044 -0.05720359598042502 -0.05970955685154227 -0.06189253139377095 -0.06372687568376367 -0.06519070817625648 -0.06626420680827266 -0.06692677583602127 -0.06715843518234298 -0.06693957300024464 -0.06625523264234118 -0.06509480398507225 -0.06345670099220181 -0.06134615420240563 -0.05877980186079342 -0.05578167516608907 -0.05238816304783985 -0.048642787817693586 -0.044601875773750584 -0.04032826502508633 -0.03589668648926001 -0.03138594410327231 -0.026883532335083307 -0.022476977782747876 -0.01825743511696762 -0.014310891061306103 -0.01072084483471723 -0.0075604015119912 -0.004894487083932066 -0.0027742531970407014 -0.0012397573166799327 -0.0003172921528152791 0.0 -0.0003323984534900217 -0.0015441144995067134 -0.0034622959332618343 -0.005959005703461555 -0.008911227550690346 -0.012215999027025881 -0.015798485549893073 -0.01960412127892954 -0.023582499099396602 -0.02767601231858461 -0.03182056591874845 -0.035955077654011035 -0.040030486425201 -0.04401096898780407 -0.047867662373039924 -0.051570227028303724 -0.055082596722801046 -0.058364199396977824 -0.06137528189162142 -0.06408104599857187 -0.06645358686162989 -0.06846911384262545 -0.07010543947449169 -0.0713380064892822 -0.07214100620005705 -0.07248697918509646 -0.07235204336389989 -0.07171558993596092 -0.07056587241907936 -0.06889702090174674 -0.06671465833755198 -0.06403091304142179 -0.06087121441687312 -0.05726795282153551 -0.05326853062074526 -0.04892769028000175 -0.04431595546137672 -0.03950996322442384 -0.034600016933132235 -0.029678911061377686 -0.024848386695847997 -0.020207302490608592 -0.015856693736606968 -0.011888497808189565 -0.008389527567821693 -0.005432303096279855 -0.00307864721185329 -0.0013738480370015863 -0.0003497409663957027 0.0 -0.00035699891844903105 -0.001673150641093565 -0.0037379633419931594 -0.006404824573931215 -0.00954714913958739 -0.013067616826467059 -0.016895133555507976 -0.020969248455701854 -0.025225307382626447 -0.02959155631527704 -0.03399788831708113 -0.03838677114469208 -0.04271666351708806 -0.0469561674266625 -0.05107416813652871 -0.0550337067523261 -0.05879222935148793 -0.06230721337937073 -0.06554121425741508 -0.06846452154397542 -0.0710521920775383 -0.0732807508060516 -0.07512295999304561 -0.07654840018630858 -0.07752274158316877 -0.078013847215086 -0.07799153579074897 -0.07743410511557915 -0.07632440839798588 -0.07465631166952895 -0.0724283975328573 -0.06965265478572032 -0.06634695807300076 -0.06254597154920065 -0.05829180345630325 -0.05364598258456049 -0.04867773640718687 -0.043475459349631804 -0.03813257478263848 -0.032757854957082964 -0.027460020600365165 -0.022356280151250532 -0.017556835100739437 -0.013171624360394207 -0.009296615546355306 -0.0060193167027458245 -0.003408511890733105 -0.0015188354225250825 -0.00038434822141294696 0.0 -0.0003916843858475825 -0.001810044216789323 -0.004014220847233357 -0.0068451565205904525 -0.010178217831629753 -0.013920912877986507 -0.017999128470991207 -0.022339614601414554 -0.0268624123918661 -0.031487303428893755 -0.03614614698550991 -0.04078922638456843 -0.04538086618911947 -0.04988855993464738 -0.05427460348741431 -0.05849477441085239 -0.06250392026838036 -0.06626199955334633 -0.06973771833784036 -0.07290563758314215 -0.07574212360058336 -0.07821876780349782 -0.08030216542323156 -0.08195267607261568 -0.0831312486485541 -0.08379928196164853 -0.08392606549379994 -0.08348383174306175 -0.08245483976887628 -0.08082345089032214 -0.07858658905108187 -0.07574483968183224 -0.07231655355379767 -0.0683267025178576 -0.06382279132066748 -0.05886065531599151 -0.05352075811746503 -0.047890837630194756 -0.04208122672492521 -0.036205367765123064 -0.030393236551731886 -0.024770881691029027 -0.019471251328215058 -0.014614857198221861 -0.010318390551346823 -0.006678736955774458 -0.0037797866540498232 -0.0016813024503493676 -0.0004234677971290707 0.0 -0.0004521405480270474 -0.0019692546518555137 -0.0043041432265772134 -0.007293437976543878 -0.010817349257851824 -0.014784280600396695 -0.019110459772582147 -0.02370717045095191 -0.028483237551791944 -0.033357658777757954 -0.03826931498852336 -0.043175385753563465 -0.04804039703822291 -0.052825503293305744 -0.05748485613405856 -0.06197054158161139 -0.06623958168323399 -0.07025890391884987 -0.07400294288181798 -0.07744895722192142 -0.08056900599675552 -0.08332861071604186 -0.08568481727130256 -0.08759355452081789 -0.08900962928670113 -0.08989501799000293 -0.09021287375441192 -0.0899349909932318 -0.08903199625486635 -0.08748533716904389 -0.08527674896415419 -0.0824056101668063 -0.07887585911416857 -0.07471621472549432 -0.06996306397402023 -0.0646821558089316 -0.0589477769535631 -0.05286434541492942 -0.046542443840140724 -0.04011867633319168 -0.03372970780249973 -0.027528842857499285 -0.02166006184043297 -0.016271220045033074 -0.011490910030464842 -0.0074386972415761456 -0.004207192213487646 -0.0018697695874392126 -0.00046868493504270475 0.0 -0.0005467443403150223 -0.002150590292127355 -0.004600924338238981 -0.007740906426797013 -0.01145468190738153 -0.01564507324031782 -0.020213729031142647 -0.025057818064105754 -0.030081300151833783 -0.03520784341519044 -0.04038340637773263 -0.04556671851982429 -0.050716620309138906 -0.055785412221027744 -0.060722178552247166 -0.06548038379861287 -0.07002448732735138 -0.07432866332098961 -0.07837181535899589 -0.08212808035667281 -0.08556397174942411 -0.0886354739926779 -0.09129571392278528 -0.09349519726062443 -0.09519089182225685 -0.09633923900001076 -0.0969037152544582 -0.09684295758929726 -0.09612393451622467 -0.09470958022424404 -0.09257921079161142 -0.0897132506705584 -0.08611786051575127 -0.08180461439238179 -0.07681789054682099 -0.07121013705486455 -0.06507081468380221 -0.05849777191264832 -0.051625111743444564 -0.04459140089106241 -0.03756397808143616 -0.030705676203694104 -0.024194464575468696 -0.018191856314269277 -0.012858057824643757 -0.008325365342718527 -0.004709613646179245 -0.0020912192132102455 -0.0005230365055884623 0.0 -0.0006505198769051724 -0.0023236795394175223 -0.004875719588026335 -0.00816478029576129 -0.012073481966961695 -0.016491173798626333 -0.021302416299093133 -0.026394213867444668 -0.03167106345725364 -0.037062667374025964 -0.04251775989721039 -0.047990642384591206 -0.05343115591655116 -0.058785188174853766 -0.06400199298874616 -0.0690424711445881 -0.07387973621312705 -0.07849448545401186 -0.0828642389292297 -0.08695854127687935 -0.09073465459558717 -0.09414519561483635 -0.0971387939333077 -0.09967001532397216 -0.10169156465044528 -0.10316162721546918 -0.10402981220620271 -0.10425105398917321 -0.10377130569931595 -0.10255066722911364 -0.10054568680369358 -0.0977380826285149 -0.09411088454121457 -0.08968158040048953 -0.08447302172949853 -0.07855025453367682 -0.07198708387632732 -0.06490341492526516 -0.05742751277142673 -0.0497300842286139 -0.041983462114222034 -0.03438994807721724 -0.027140918580691332 -0.02043883099781015 -0.014460214934836142 -0.009372136540596942 -0.005303256444944451 -0.0023559053810369808 -0.0005879826294392335 0.0 -0.0007125488185191651 -0.002446291280647859 -0.00510425092762147 -0.008557117802653447 -0.012677231239398965 -0.017333848930079 -0.022395218056679864 -0.027743162158023006 -0.0332857832421649 -0.03895647446431479 -0.04470151047541853 -0.050466993956913286 -0.056195424927983746 -0.06183137773282219 -0.06733092266330123 -0.07266461106533674 -0.07781416134891177 -0.08276106520300136 -0.0874796127479308 -0.09193060083517393 -0.09606832346969323 -0.09984177282106665 -0.1032056033547519 -0.10611197361208015 -0.10851739899981266 -0.11036643546221613 -0.11160573167520357 -0.11216777679893206 -0.11199628305731626 -0.11102598593069136 -0.10921484700145713 -0.10651626306774734 -0.10291756595378315 -0.09840623313083416 -0.09301464130839626 -0.08678148810392332 -0.07979955211307728 -0.07217206364652433 -0.06405836678949758 -0.05562575390399925 -0.04708900360111945 -0.03866007794623868 -0.030579449818913355 -0.023067655486709807 -0.01634852840449869 -0.010607881306475001 -0.00601065087494641 -0.002671361435352655 -0.0006671252433998916 0.0 -0.0007009216401566627 -0.0025067242691141607 -0.00529943523416772 -0.00894586535740109 -0.013299386227048873 -0.01820744920043269 -0.023526506732164658 -0.029138313177828102 -0.03495505623949615 -0.04091022543483919 -0.046943815868576336 -0.05299439051454202 -0.05900152736048647 -0.06491520895817582 -0.07070132425664295 -0.07634070496638742 -0.08181821760941693 -0.08711383814857712 -0.09219383406907355 -0.09701617102054026 -0.10153207948020977 -0.1056982940939069 -0.10946932226067145 -0.11280377038528723 -0.11564576854030781 -0.11793842039011553 -0.11960565497058057 -0.12057934386214551 -0.12077677437261311 -0.12013557935111115 -0.1185817149757543 -0.11607238420355799 -0.11255721441821147 -0.10803050482823548 -0.10248714733774247 -0.0