# vtk DataFile Version 3.0
vtk output
ASCII
DATASET STRUCTURED_GRID
DIMENSIONS 51 51 1
POINTS 2601 float
0.0 0.0 0.0
0.02 0.0 0.0
0.04 0.0 0.0
0.06 0.0 0.0
0.08 0.0 0.0
0.1 0.0 0.0
0.12 0.0 0.0
0.14 0.0 0.0
0.16 0.0 0.0
0.18 0.0 0.0
0.2 0.0 0.0
0.22 0.0 0.0
0.24 0.0 0.0
0.26 0.0 0.0
0.28 0.0 0.0
0.3 0.0 0.0
0.32 0.0 0.0
0.34 0.0 0.0
0.36 0.0 0.0
0.38 0.0 0.0
0.4 0.0 0.0
0.42 0.0 0.0
0.44 0.0 0.0
0.46 0.0 0.0
0.48 0.0 0.0
0.5 0.0 0.0
0.52 0.0 0.0
0.54 0.0 0.0
0.56 0.0 0.0
0.58 0.0 0.0
0.6 0.0 0.0
0.62 0.0 0.0
0.64 0.0 0.0
0.66 0.0 0.0
0.68 0.0 0.0
0.7000000000000001 0.0 0.0
0.72 0.0 0.0
0.74 0.0 0.0
0.76 0.0 0.0
0.78 0.0 0.0
0.8 0.0 0.0
0.8200000000000001 0.0 0.0
0.84 0.0 0.0
0.86 0.0 0.0
0.88 0.0 0.0
0.9 0.0 0.0
0.92 0.0 0.0
0.9400000000000001 0.0 0.0
0.96 0.0 0.0
0.98 0.0 0.0
1.0 0.0 0.0
0.0 0.02 0.0
0.02 0.02 0.0
0.04 0.02 0.0
0.06 0.02 0.0
0.08 0.02 0.0
0.1 0.02 0.0
0.12 0.02 0.0
0.14 0.02 0.0
0.16 0.02 0.0
0.18 0.02 0.0
0.2 0.02 0.0
0.22 0.02 0.0
0.24 0.02 0.0
0.26 0.02 0.0
0.28 0.02 0.0
0.3 0.02 0.0
0.32 0.02 0.0
0.34 0.02 0.0
0.36 0.02 0.0
0.38 0.02 0.0
0.4 0.02 0.0
0.42 0.02 0.0
0.44 0.02 0.0
0.46 0.02 0.0
0.48 0.02 0.0
0.5 0.02 0.0
0.52 0.02 0.0
0.54 0.02 0.0
0.56 0.02 0.0
0.58 0.02 0.0
0.6 0.02 0.0
0.62 0.02 0.0
0.64 0.02 0.0
0.66 0.02 0.0
0.68 0.02 0.0
0.7000000000000001 0.02 0.0
0.72 0.02 0.0
0.74 0.02 0.0
0.76 0.02 0.0
0.78 0.02 0.0
0.8 0.02 0.0
0.8200000000000001 0.02 0.0
0.84 0.02 0.0
0.86 0.02 0.0
0.88 0.02 0.0
0.9 0.02 0.0
0.92 0.02 0.0
0.9400000000000001 0.02 0.0
0.96 0.02 0.0
0.98 0.02 0.0
1.0 0.02 0.0
0.0 0.04 0.0
0.02 0.04 0.0
0.04 0.04 0.0
0.06 0.04 0.0
0.08 0.04 0.0
0.1 0.04 0.0
0.12 0.04 0.0
0.14 0.04 0.0
0.16 0.04 0.0
0.18 0.04 0.0
0.2 0.04 0.0
0.22 0.04 0.0
0.24 0.04 0.0
0.26 0.04 0.0
0.28 0.04 0.0
0.3 0.04 0.0
0.32 0.04 0.0
0.34 0.04 0.0
0.36 0.04 0.0
0.38 0.04 0.0
0.4 0.04 0.0
0.42 0.04 0.0
0.44 0.04 0.0
0.46 0.04 0.0
0.48 0.04 0.0
0.5 0.04 0.0
0.52 0.04 0.0
0.54 0.04 0.0
0.56 0.04 0.0
0.58 0.04 0.0
0.6 0.04 0.0
0.62 0.04 0.0
0.64 0.04 0.0
0.66 0.04 0.0
0.68 0.04 0.0
0.7000000000000001 0.04 0.0
0.72 0.04 0.0
0.74 0.04 0.0
0.76 0.04 0.0
0.78 0.04 0.0
0.8 0.04 0.0
0.8200000000000001 0.04 0.0
0.84 0.04 0.0
0.86 0.04 0.0
0.88 0.04 0.0
0.9 0.04 0.0
0.92 0.04 0.0
0.9400000000000001 0.04 0.0
0.96 0.04 0.0
0.98 0.04 0.0
1.0 0.04 0.0
0.0 0.06 0.0
0.02 0.06 0.0
0.04 0.06 0.0
0.06 0.06 0.0
0.08 0.06 0.0
0.1 0.06 0.0
0.12 0.06 0.0
0.14 0.06 0.0
0.16 0.06 0.0
0.18 0.06 0.0
0.2 0.06 0.0
0.22 0.06 0.0
0.24 0.06 0.0
0.26 0.06 0.0
0.28 0.06 0.0
0.3 0.06 0.0
0.32 0.06 0.0
0.34 0.06 0.0
0.36 0.06 0.0
0.38 0.06 0.0
0.4 0.06 0.0
0.42 0.06 0.0
0.44 0.06 0.0
0.46 0.06 0.0
0.48 0.06 0.0
0.5 0.06 0.0
0.52 0.06 0.0
0.54 0.06 0.0
0.56 0.06 0.0
0.58 0.06 0.0
0.6 0.06 0.0
0.62 0.06 0.0
0.64 0.06 0.0
0.66 0.06 0.0
0.68 0.06 0.0
0.7000000000000001 0.06 0.0
0.72 0.06 0.0
0.74 0.06 0.0
0.76 0.06 0.0
0.78 0.06 0.0
0.8 0.06 0.0
0.8200000000000001 0.06 0.0
0.84 0.06 0.0
0.86 0.06 0.0
0.88 0.06 0.0
0.9 0.06 0.0
0.92 0.06 0.0
0.9400000000000001 0.06 0.0
0.96 0.06 0.0
0.98 0.06 0.0
1.0 0.06 0.0
0.0 0.08 0.0
0.02 0.08 0.0
0.04 0.08 0.0
0.06 0.08 0.0
0.08 0.08 0.0
0.1 0.08 0.0
0.12 0.08 0.0
0.14 0.08 0.0
0.16 0.08 0.0
0.18 0.08 0.0
0.2 0.08 0.0
0.22 0.08 0.0
0.24 0.08 0.0
0.26 0.08 0.0
0.28 0.08 0.0
0.3 0.08 0.0
0.32 0.08 0.0
0.34 0.08 0.0
0.36 0.08 0.0
0.38 0.08 0.0
0.4 0.08 0.0
0.42 0.08 0.0
0.44 0.08 0.0
0.46 0.08 0.0
0.48 0.08 0.0
0.5 0.08 0.0
0.52 0.08 0.0
0.54 0.08 0.0
0.56 0.08 0.0
0.58 0.08 0.0
0.6 0.08 0.0
0.62 0.08 0.0
0.64 0.08 0.0
0.66 0.08 0.0
0.68 0.08 0.0
0.7000000000000001 0.08 0.0
0.72 0.08 0.0
0.74 0.08 0.0
0.76 0.08 0.0
0.78 0.08 0.0
0.8 0.08 0.0
0.8200000000000001 0.08 0.0
0.84 0.08 0.0
0.86 0.08 0.0
0.88 0.08 0.0
0.9 0.08 0.0
0.92 0.08 0.0
0.9400000000000001 0.08 0.0
0.96 0.08 0.0
0.98 0.08 0.0
1.0 0.08 0.0
0.0 0.1 0.0
0.02 0.1 0.0
0.04 0.1 0.0
0.06 0.1 0.0
0.08 0.1 0.0
0.1 0.1 0.0
0.12 0.1 0.0
0.14 0.1 0.0
0.16 0.1 0.0
0.18 0.1 0.0
0.2 0.1 0.0
0.22 0.1 0.0
0.24 0.1 0.0
0.26 0.1 0.0
0.28 0.1 0.0
0.3 0.1 0.0
0.32 0.1 0.0
0.34 0.1 0.0
0.36 0.1 0.0
0.38 0.1 0.0
0.4 0.1 0.0
0.42 0.1 0.0
0.44 0.1 0.0
0.46 0.1 0.0
0.48 0.1 0.0
0.5 0.1 0.0
0.52 0.1 0.0
0.54 0.1 0.0
0.56 0.1 0.0
0.58 0.1 0.0
0.6 0.1 0.0
0.62 0.1 0.0
0.64 0.1 0.0
0.66 0.1 0.0
0.68 0.1 0.0
0.7000000000000001 0.1 0.0
0.72 0.1 0.0
0.74 0.1 0.0
0.76 0.1 0.0
0.78 0.1 0.0
0.8 0.1 0.0
0.8200000000000001 0.1 0.0
0.84 0.1 0.0
0.86 0.1 0.0
0.88 0.1 0.0
0.9 0.1 0.0
0.92 0.1 0.0
0.9400000000000001 0.1 0.0
0.96 0.1 0.0
0.98 0.1 0.0
1.0 0.1 0.0
0.0 0.12 0.0
0.02 0.12 0.0
0.04 0.12 0.0
0.06 0.12 0.0
0.08 0.12 0.0
0.1 0.12 0.0
0.12 0.12 0.0
0.14 0.12 0.0
0.16 0.12 0.0
0.18 0.12 0.0
0.2 0.12 0.0
0.22 0.12 0.0
0.24 0.12 0.0
0.26 0.12 0.0
0.28 0.12 0.0
0.3 0.12 0.0
0.32 0.12 0.0
0.34 0.12 0.0
0.36 0.12 0.0
0.38 0.12 0.0
0.4 0.12 0.0
0.42 0.12 0.0
0.44 0.12 0.0
0.46 0.12 0.0
0.48 0.12 0.0
0.5 0.12 0.0
0.52 0.12 0.0
0.54 0.12 0.0
0.56 0.12 0.0
0.58 0.12 0.0
0.6 0.12 0.0
0.62 0.12 0.0
0.64 0.12 0.0
0.66 0.12 0.0
0.68 0.12 0.0
0.7000000000000001 0.12 0.0
0.72 0.12 0.0
0.74 0.12 0.0
0.76 0.12 0.0
0.78 0.12 0.0
0.8 0.12 0.0
0.8200000000000001 0.12 0.0
0.84 0.12 0.0
0.86 0.12 0.0
0.88 0.12 0.0
0.9 0.12 0.0
0.92 0.12 0.0
0.9400000000000001 0.12 0.0
0.96 0.12 0.0
0.98 0.12 0.0
1.0 0.12 0.0
0.0 0.14 0.0
0.02 0.14 0.0
0.04 0.14 0.0
0.06 0.14 0.0
0.08 0.14 0.0
0.1 0.14 0.0
0.12 0.14 0.0
0.14 0.14 0.0
0.16 0.14 0.0
0.18 0.14 0.0
0.2 0.14 0.0
0.22 0.14 0.0
0.24 0.14 0.0
0.26 0.14 0.0
0.28 0.14 0.0
0.3 0.14 0.0
0.32 0.14 0.0
0.34 0.14 0.0
0.36 0.14 0.0
0.38 0.14 0.0
0.4 0.14 0.0
0.42 0.14 0.0
0.44 0.14 0.0
0.46 0.14 0.0
0.48 0.14 0.0
0.5 0.14 0.0
0.52 0.14 0.0
0.54 0.14 0.0
0.56 0.14 0.0
0.58 0.14 0.0
0.6 0.14 0.0
0.62 0.14 0.0
0.64 0.14 0.0
0.66 0.14 0.0
0.68 0.14 0.0
0.7000000000000001 0.14 0.0
0.72 0.14 0.0
0.74 0.14 0.0
0.76 0.14 0.0
0.78 0.14 0.0
0.8 0.14 0.0
0.8200000000000001 0.14 0.0
0.84 0.14 0.0
0.86 0.14 0.0
0.88 0.14 0.0
0.9 0.14 0.0
0.92 0.14 0.0
0.9400000000000001 0.14 0.0
0.96 0.14 0.0
0.98 0.14 0.0
1.0 0.14 0.0
0.0 0.16 0.0
0.02 0.16 0.0
0.04 0.16 0.0
0.06 0.16 0.0
0.08 0.16 0.0
0.1 0.16 0.0
0.12 0.16 0.0
0.14 0.16 0.0
0.16 0.16 0.0
0.18 0.16 0.0
0.2 0.16 0.0
0.22 0.16 0.0
0.24 0.16 0.0
0.26 0.16 0.0
0.28 0.16 0.0
0.3 0.16 0.0
0.32 0.16 0.0
0.34 0.16 0.0
0.36 0.16 0.0
0.38 0.16 0.0
0.4 0.16 0.0
0.42 0.16 0.0
0.44 0.16 0.0
0.46 0.16 0.0
0.48 0.16 0.0
0.5 0.16 0.0
0.52 0.16 0.0
0.54 0.16 0.0
0.56 0.16 0.0
0.58 0.16 0.0
0.6 0.16 0.0
0.62 0.16 0.0
0.64 0.16 0.0
0.66 0.16 0.0
0.68 0.16 0.0
0.7000000000000001 0.16 0.0
0.72 0.16 0.0
0.74 0.16 0.0
0.76 0.16 0.0
0.78 0.16 0.0
0.8 0.16 0.0
0.8200000000000001 0.16 0.0
0.84 0.16 0.0
0.86 0.16 0.0
0.88 0.16 0.0
0.9 0.16 0.0
0.92 0.16 0.0
0.9400000000000001 0.16 0.0
0.96 0.16 0.0
0.98 0.16 0.0
1.0 0.16 0.0
0.0 0.18 0.0
0.02 0.18 0.0
0.04 0.18 0.0
0.06 0.18 0.0
0.08 0.18 0.0
0.1 0.18 0.0
0.12 0.18 0.0
0.14 0.18 0.0
0.16 0.18 0.0
0.18 0.18 0.0
0.2 0.18 0.0
0.22 0.18 0.0
0.24 0.18 0.0
0.26 0.18 0.0
0.28 0.18 0.0
0.3 0.18 0.0
0.32 0.18 0.0
0.34 0.18 0.0
0.36 0.18 0.0
0.38 0.18 0.0
0.4 0.18 0.0
0.42 0.18 0.0
0.44 0.18 0.0
0.46 0.18 0.0
0.48 0.18 0.0
0.5 0.18 0.0
0.52 0.18 0.0
0.54 0.18 0.0
0.56 0.18 0.0
0.58 0.18 0.0
0.6 0.18 0.0
0.62 0.18 0.0
0.64 0.18 0.0
0.66 0.18 0.0
0.68 0.18 0.0
0.7000000000000001 0.18 0.0
0.72 0.18 0.0
0.74 0.18 0.0
0.76 0.18 0.0
0.78 0.18 0.0
0.8 0.18 0.0
0.8200000000000001 0.18 0.0
0.84 0.18 0.0
0.86 0.18 0.0
0.88 0.18 0.0
0.9 0.18 0.0
0.92 0.18 0.0
0.9400000000000001 0.18 0.0
0.96 0.18 0.0
0.98 0.18 0.0
1.0 0.18 0.0
0.0 0.2 0.0
0.02 0.2 0.0
0.04 0.2 0.0
0.06 0.2 0.0
0.08 0.2 0.0
0.1 0.2 0.0
0.12 0.2 0.0
0.14 0.2 0.0
0.16 0.2 0.0
0.18 0.2 0.0
0.2 0.2 0.0
0.22 0.2 0.0
0.24 0.2 0.0
0.26 0.2 0.0
0.28 0.2 0.0
0.3 0.2 0.0
0.32 0.2 0.0
0.34 0.2 0.0
0.36 0.2 0.0
0.38 0.2 0.0
0.4 0.2 0.0
0.42 0.2 0.0
0.44 0.2 0.0
0.46 0.2 0.0
0.48 0.2 0.0
0.5 0.2 0.0
0.52 0.2 0.0
0.54 0.2 0.0
0.56 0.2 0.0
0.58 0.2 0.0
0.6 0.2 0.0
0.62 0.2 0.0
0.64 0.2 0.0
0.66 0.2 0.0
0.68 0.2 0.0
0.7000000000000001 0.2 0.0
0.72 0.2 0.0
0.74 0.2 0.0
0.76 0.2 0.0
0.78 0.2 0.0
0.8 0.2 0.0
0.8200000000000001 0.2 0.0
0.84 0.2 0.0
0.86 0.2 0.0
0.88 0.2 0.0
0.9 0.2 0.0
0.92 0.2 0.0
0.9400000000000001 0.2 0.0
0.96 0.2 0.0
0.98 0.2 0.0
1.0 0.2 0.0
0.0 0.22 0.0
0.02 0.22 0.0
0.04 0.22 0.0
0.06 0.22 0.0
0.08 0.22 0.0
0.1 0.22 0.0
0.12 0.22 0.0
0.14 0.22 0.0
0.16 0.22 0.0
0.18 0.22 0.0
0.2 0.22 0.0
0.22 0.22 0.0
0.24 0.22 0.0
0.26 0.22 0.0
0.28 0.22 0.0
0.3 0.22 0.0
0.32 0.22 0.0
0.34 0.22 0.0
0.36 0.22 0.0
0.38 0.22 0.0
0.4 0.22 0.0
0.42 0.22 0.0
0.44 0.22 0.0
0.46 0.22 0.0
0.48 0.22 0.0
0.5 0.22 0.0
0.52 0.22 0.0
0.54 0.22 0.0
0.56 0.22 0.0
0.58 0.22 0.0
0.6 0.22 0.0
0.62 0.22 0.0
0.64 0.22 0.0
0.66 0.22 0.0
0.68 0.22 0.0
0.7000000000000001 0.22 0.0
0.72 0.22 0.0
0.74 0.22 0.0
0.76 0.22 0.0
0.78 0.22 0.0
0.8 0.22 0.0
0.8200000000000001 0.22 0.0
0.84 0.22 0.0
0.86 0.22 0.0
0.88 0.22 0.0
0.9 0.22 0.0
0.92 0.22 0.0
0.9400000000000001 0.22 0.0
0.96 0.22 0.0
0.98 0.22 0.0
1.0 0.22 0.0
0.0 0.24 0.0
0.02 0.24 0.0
0.04 0.24 0.0
0.06 0.24 0.0
0.08 0.24 0.0
0.1 0.24 0.0
0.12 0.24 0.0
0.14 0.24 0.0
0.16 0.24 0.0
0.18 0.24 0.0
0.2 0.24 0.0
0.22 0.24 0.0
0.24 0.24 0.0
0.26 0.24 0.0
0.28 0.24 0.0
0.3 0.24 0.0
0.32 0.24 0.0
0.34 0.24 0.0
0.36 0.24 0.0
0.38 0.24 0.0
0.4 0.24 0.0
0.42 0.24 0.0
0.44 0.24 0.0
0.46 0.24 0.0
0.48 0.24 0.0
0.5 0.24 0.0
0.52 0.24 0.0
0.54 0.24 0.0
0.56 0.24 0.0
0.58 0.24 0.0
0.6 0.24 0.0
0.62 0.24 0.0
0.64 0.24 0.0
0.66 0.24 0.0
0.68 0.24 0.0
0.7000000000000001 0.24 0.0
0.72 0.24 0.0
0.74 0.24 0.0
0.76 0.24 0.0
0.78 0.24 0.0
0.8 0.24 0.0
0.8200000000000001 0.24 0.0
0.84 0.24 0.0
0.86 0.24 0.0
0.88 0.24 0.0
0.9 0.24 0.0
0.92 0.24 0.0
0.9400000000000001 0.24 0.0
0.96 0.24 0.0
0.98 0.24 0.0
1.0 0.24 0.0
0.0 0.26 0.0
0.02 0.26 0.0
0.04 0.26 0.0
0.06 0.26 0.0
0.08 0.26 0.0
0.1 0.26 0.0
0.12 0.26 0.0
0.14 0.26 0.0
0.16 0.26 0.0
0.18 0.26 0.0
0.2 0.26 0.0
0.22 0.26 0.0
0.24 0.26 0.0
0.26 0.26 0.0
0.28 0.26 0.0
0.3 0.26 0.0
0.32 0.26 0.0
0.34 0.26 0.0
0.36 0.26 0.0
0.38 0.26 0.0
0.4 0.26 0.0
0.42 0.26 0.0
0.44 0.26 0.0
0.46 0.26 0.0
0.48 0.26 0.0
[...]
CELL_DATA 2500
SCALARS u float 1
LOOKUP_TABLE u_cell_table
1.7579612578960528e-07 0.00017353743935136822 0.00023352520231588534 0.000146726566989046 -5.91710140512851e-05 -0.0003511441476836215 -0.0007041246040608006 -0.001101354391361135 -0.0015319123467039276 -0.001988042984699072 -0.002462660891392554 -0.002948425271084055 -0.003437406905742198 -0.003921805847035656 -0.004394185176123692 -0.004848041445128704 -0.005277465510562683 -0.005677228823357406 -0.006042135055665957 -0.006367114333828942 -0.006646735493314627 -0.0068755906939403635 -0.007048076414980538 -0.007159021547226913 -0.007203623049666661 -0.0071781563886743616 -0.007079918659898489 -0.00690788626191628 -0.006662578668861265 -0.006346598114382301 -0.005964377947103729 -0.0055225628818362975 -0.005029611536343127 -0.004495985494289606 -0.003933595956865748 -0.0033557943752335565 -0.0027766695684331684 -0.0022108474069142507 -0.0016726730728899204 -0.0011758712538219571 -0.0007326643206636209 -0.00035324671211838714 -4.455143782576077e-05 0.0001913090859732238 0.000360756058259596 0.000486593581116294 0.0006267510618249806 0.0009148939074197797 0.0016268399229800482 0.0 7.756156213421168e-05 9.139353917671667e-05 -5.549927661132437e-05 -0.000418284949649258 -0.0009970373015475258 -0.0017665917086650735 -0.0026964122757042585 -0.003756012857670377 -0.004917445011742639 -0.0061544888141666755 -0.00744346111898476 -0.008761736526630806 -0.010088903074934853 -0.011405228308264482 -0.012692962937175725 -0.01393446168285518 -0.01511349908299399 -0.01621323152558563 -0.017217783368080913 -0.018110373000868252 -0.018875322225181835 -0.019496452429571074 -0.01995945224295488 -0.02025048769124822 -0.020358762820820053 -0.020275222996280765 -0.019995110523128738 -0.019516627344926023 -0.018843304948495346 -0.017982515735806295 -0.01694750306633904 -0.01575564416785728 -0.014430009360073884 -0.012997315333021463 -0.01148894268794453 -0.009938581443504183 -0.008382699240177541 -0.006857940049528883 -0.005401105624625561 -0.004046429516509487 -0.002825139222418762 -0.0017625919261010376 -0.0008771603011280631 -0.00017674413986537688 0.00034351200344097605 0.0007042306698579557 0.0009365735716175023 0.0010493977302178778 0.0009108460747921907 0.0 9.023833057644333e-05 -0.000126961323962105 -0.0005871999833870815 -0.0013101977421109468 -0.0023040896192875887 -0.0035540222123096386 -0.005030292389692728 -0.006696866138337681 -0.008514679367298075 -0.010445840267642408 -0.012453825606202108 -0.014505764640187695 -0.01657046798889371 -0.018619725289865458 -0.020625480070476272 -0.0225613516115147 -0.024399929766845154 -0.026114995242086804 -0.027679147659430504 -0.02906661269633238 -0.030251096666217316 -0.031208966976272675 -0.03191725688816907 -0.032357074140993924 -0.032511716053564226 -0.03237015533876749 -0.03192517798342632 -0.031176747638584242 -0.03013003105570123 -0.02879841763651266 -0.027201276920044357 -0.025366416440277754 -0.023327440868929447 -0.021125493356998863 -0.01880616388560039 -0.016420454347257835 -0.01402127949109201 -0.011663704748682155 -0.009401192020418036 -0.007285255474115827 -0.0053616476255172775 -0.003669571051792815 -0.0022380155368423326 -0.0010849757025526508 -0.00021538489235880105 0.000375762461091845 0.000695195950495027 0.000732662651722221 0.0004600562857081438 0.0 -4.508767907146125e-05 -0.0004791231221974361 -0.0012488239760157086 -0.0023458948366305555 -0.0037696782464292445 -0.005502245172270454 -0.007510151595325561 -0.009750317877411624 -0.012177402814106087 -0.014745309699182516 -0.017411107169583002 -0.020133009466947252 -0.02287256751558206 -0.025591144359888646 -0.02825228946927033 -0.030818216406114818 -0.03325303102712935 -0.035519436285152875 -0.03758259183354951 -0.039406890410016604 -0.040960202876872784 -0.0422107225178107 -0.043131510334995606 -0.043697480510205 -0.04389014517080774 -0.04369471810976054 -0.04310484916988417 -0.042119713252567796 -0.04074845667450719 -0.039007086485645326 -0.03692234010680884 -0.03452819580124457 -0.03186892656864803 -0.028995121709840893 -0.025965786501808016 -0.022843871761439906 -0.019697408294917784 -0.01659467463183391 -0.01360449972829704 -0.01079132704013738 -0.00821493585047747 -0.005925786263068062 -0.0039646549147452055 -0.0023591700059595075 -0.0011248608615045182 -0.0002650988302244861 0.0002252828218713667 0.00036440084712027564 0.0002164881161465687 0.0 -0.0002631281863779213 -0.0008979713247742847 -0.0019582706850694337 -0.003424821626702294 -0.005278036606764197 -0.007489247416681485 -0.010016504276488345 -0.012811627321935729 -0.01582274790791775 -0.018999272888891264 -0.022290194031809464 -0.025647212984419944 -0.02902130541968044 -0.03236599968547969 -0.03563360931642488 -0.038779207945735375 -0.041756696269836656 -0.044523254540393874 -0.04703521657058697 -0.04925290592673914 -0.05113651053912289 -0.052651348858833116 -0.053763945175438685 -0.05444766822626228 -0.054679029016836314 -0.054443461331938135 -0.053731706875667085 -0.052545416019004344 -0.050893420513917216 -0.048796819497382356 -0.04628493477113281 -0.043399582144313685 -0.040190550147815626 -0.0367188405032273 -0.03305160415596491 -0.029264256436018325 -0.025434934645985174 -0.021645547941847684 -0.017975977613352758 -0.014504289016401436 -0.011301064118097401 -0.008429208291109252 -0.005939065502660095 -0.0038685742034414794 -0.0022399979550228933 -0.0010605290183143027 -0.00031801669531180625 2.7832596476220074e-05 7.207953965078887e-05 0.0 -0.00044946025859228403 -0.001278582544265013 -0.002623861567907092 -0.004461001731342288 -0.006750083113423658 -0.00944564605626967 -0.012496857117415928 -0.015847143377478962 -0.019439219609803295 -0.023213572563927882 -0.027112573759179612 -0.03107734900759533 -0.03505216223216307 -0.03898048342534739 -0.042809706055659896 -0.04648642912332873 -0.04996139844182537 -0.05318428638046766 -0.056109075939830014 -0.05868882599429683 -0.060881694559376316 -0.06264598872331048 -0.06394675798633687 -0.06475115329886294 -0.06503531029770353 -0.06477988040598898 -0.06397684862206916 -0.06262504959931335 -0.06073656608285126 -0.05833203440514653 -0.05544629167716022 -0.05212328864753082 -0.04842070345917983 -0.04440433464482775 -0.04015149151613338 -0.03574484326202806 -0.03127453438131089 -0.026831618009996994 -0.022509026856520682 -0.018394912101951398 -0.014572818452109112 -0.011115470906778533 -0.008084705645816481 -0.005526311947741609 -0.00346995687716856 -0.001924464483627751 -0.0008750910615322501 -0.0002738894012284653 -2.8883264363555028e-05 0.0 -0.0005229049549118137 -0.001555838492583732 -0.003202654766180301 -0.005428394781244341 -0.008172414043077043 -0.011371988583850669 -0.01496178757553819 -0.018876080651987648 -0.023046391259852993 -0.027406031668214335 -0.03188728180482106 -0.03642652000498458 -0.04096014975457401 -0.04542968928742949 -0.04977628767229706 -0.05394584391564715 -0.05788279465602536 -0.06153585127647687 -0.06485183061508318 -0.06778229940908324 -0.07027776361015702 -0.07229506482724199 -0.07379190540220248 -0.07473464924760038 -0.0750930544954616 -0.07484811720783772 -0.07398687348668803 -0.07250994987032496 -0.07042628496745282 -0.06776005651189025 -0.06454514727549052 -0.060831124390237384 -0.05667727413696952 -0.05215735231629382 -0.04735306655360239 -0.042357416482547025 -0.037267623891214845 -0.03218705117161465 -0.02721777772748394 -0.02246132526815831 -0.01801133041948884 -0.01395354883595824 -0.0103592294423475 -0.007284841099540469 -0.004766366612161989 -0.0028182947801212725 -0.0014276701714172686 -0.0005510387315043702 -0.00011005159568063769 0.0 -0.0004873490844132702 -0.0017463130665130006 -0.003729008200638266 -0.0063704103219853325 -0.00959088507819032 -0.013307171209723275 -0.017439400787785476 -0.021907688181225682 -0.02663578112815705 -0.03154793022981656 -0.03657413912071114 -0.041645590148142266 -0.046699687090826315 -0.05167368552569131 -0.05650985305322453 -0.06114835628392285 -0.06553337649345682 -0.06960614170714664 -0.0733122185756788 -0.07659489981333786 -0.079403360238947 -0.08168631173640349 -0.08340062359239502 -0.08450516655496633 -0.08496957258939195 -0.08476822421787014 -0.08388886863028834 -0.0823266800952612 -0.0800924253285577 -0.07720645877378479 -0.07370609782758966 -0.06963935205379083 -0.06507115374553088 -0.06007661263538382 -0.05474579081713971 -0.04917634120724049 -0.043476644918502685 -0.037757864085900095 -0.03213549964936897 -0.026721168703243935 -0.021622949348999547 -0.0169374685510233 -0.012749589736292054 -0.009125411543240064 -0.0061116510758266965 -0.0037297585172922413 -0.001975084499785821 -0.0008130569466409734 -0.00018164276214957585 0.0 -0.0004352098475342896 -0.0019388401623751873 -0.0042805130695818235 -0.007349153949363029 -0.011042303234411627 -0.015260153323856085 -0.019906817186232568 -0.024894364168362722 -0.030138702772902412 -0.03556394065512716 -0.04109687933273325 -0.04667149077768998 -0.05222165815892328 -0.05768625495922702 -0.06300139578508404 -0.0681069482267447 -0.07293901013705945 -0.07743778552483607 -0.08154027174810248 -0.08518900581253167 -0.08832484604230541 -0.09089620011205084 -0.09285193891577835 -0.09415086814271283 -0.09475486127636489 -0.0946383588245552 -0.09378173959970396 -0.09218058057949591 -0.08983917838409074 -0.08677923367488637 -0.0830333309528497 -0.07865265241590362 -0.07370015147077634 -0.06825687987409354 -0.0624145821913714 -0.05628027986839804 -0.04996812198998407 -0.043602067258829987 -0.037307092892525366 -0.031210157202975986 -0.02543123704942291 -0.020083110885450117 -0.01526297153870048 -0.011051728115806854 -0.007506967354217068 -0.004662468342779992 -0.002523503508230038 -0.0010682161267148206 -0.00024846458256377445 0.0 -0.00047961883084211105 -0.0022193699819455385 -0.00490196312061837 -0.008368517368853894 -0.01249546024584077 -0.01716805462938155 -0.022283093124456126 -0.02774555914546796 -0.03347184656752078 -0.03938296934903161 -0.045408097055173374 -0.05147650356102861 -0.057522569696858615 -0.06347767294681678 -0.06927713113721101 -0.0748522783489478 -0.08013881141596264 -0.08506875986393157 -0.0895796156895187 -0.09360615683387706 -0.0970900815765795 -0.09997191080425466 -0.10220100628735111 -0.10372777606675389 -0.1045139147569287 -0.1045250092048698 -0.10374075682847314 -0.10214793992295557 -0.09975030641429498 -0.09656176181102592 -0.09261551935469405 -0.08795723975157635 -0.08265297902830433 -0.07678191509384295 -0.07044259128322697 -0.06374487552603295 -0.056814102514405086 -0.04978210281356967 -0.04278915510636223 -0.03597431712962052 -0.02947556050469432 -0.023420102120690216 -0.017923518826431048 -0.0130811112105447 -0.008967034622420331 -0.0056279217130033865 -0.0030833665871445146 -0.0013236263933299268 -0.00031374172068627946 0.0 -0.0006513237491489335 -0.0025867843769687942 -0.005549206603232922 -0.009354988307603205 -0.013859874378315134 -0.018941205474574292 -0.024488348097191845 -0.030405056356636283 -0.03660210855551198 -0.04299988923400685 -0.04951982295830788 -0.056089327232436474 -0.0626336008978357 -0.0690828926193719 -0.07536421572473294 -0.08140988417174243 -0.08714867206663844 -0.09251502662824962 -0.09743985544509351 -0.10186034801038378 -0.10571084110529774 -0.10893322811899693 -0.11146822080440236 -0.11326618282350756 -0.11427892131355304 -0.11447069312223401 -0.11381054602924713 -0.11228321248378527 -0.10988192373026913 -0.10661884616230391 -0.10251815508226061 -0.09762555427386424 -0.09200123104823527 -0.08572787579672628 -0.07890302345746962 -0.07164496207902495 -0.06408401963159466 -0.05636594444737554 -0.04864202012346467 -0.041069965621681755 -0.03380332515679192 -0.02699055614299514 -0.020764749593630304 -0.01524210944710084 -0.010513474385755575 -0.006643678292854566 -0.0036665333372910844 -0.001586698481430276 -0.0003797778576237013 0.0 -0.0008593900555218439 -0.0029420319295139228 -0.006123278351908934 -0.010218603404546181 -0.015069901600291154 -0.02054213762758121 -0.026518879488252517 -0.0328934886348238 -0.03957123474998126 -0.04646077766595238 -0.05347909789893065 -0.06054330518644433 -0.06757794874080142 -0.07450622743367985 -0.08125830158920289 -0.08776146719523206 -0.0939491411833012 -0.0997505576106471 -0.10510061919709239 -0.10992975500757655 -0.11417462999892027 -0.11776848004997109 -0.12065242716511665 -0.12276640674590378 -0.12406079559888333 -0.12448799922392843 -0.12401414642319064 -0.12261136435309246 -0.12026928251457965 -0.11698789747836104 -0.11278850822180082 -0.10770685843418555 -0.10180292781297944 -0.09515380600085599 -0.08786159212372478 -0.08004533108331895 -0.07184628319805964 -0.0634184037136486 -0.05493058528296353 -0.04655568336718018 -0.03847002516029665 -0.030841785881534575 -0.023828890981015843 -0.017568315174912152 -0.01217410030139891 -0.007729499042688029 -0.004286888649531037 -0.0018644226622994437 -0.00044897786910565803 0.0 -0.0009691817553321583 -0.0031805323460110018 -0.0065644967352656665 -0.010944173423738886 -0.01614628753867182 -0.022022049647878933 -0.028438374560252708 -0.03527797268093 -0.04243106268849222 -0.04980028836720841 -0.057292559083116194 -0.06482593406761697 -0.07232006565638449 -0.0797037949414235 -0.08690419094631849 -0.09385504553009842 -0.10048552854358538 -0.10672998856086961 -0.11251691964192771 -0.11777992036933266 -0.12244716028447604 -0.12645307054752675 -0.12972836779854446 -0.13221212744933158 -0.13384248998242876 -0.13456891980245822 -0.1343437480642001 -0.1331344692565539 -0.1309161759245645 -0.12768364581734137 -0.12344449583190588 -0.1182305831591881 -0.11209139240819778 -0.10510398557064744 -0.09736584106256685 -0.08900238530276217 -0.08015840671420382 -0.07100229861701958 -0.06171548658210962 -0.05249308667734842 -0.043531602549770655 -0.035026713809843076 -0.027160602995022372 -0.020098635257611987 -0.013978509557446686 -0.008908051078986609 -0.004958369500382524 -0.0021644401259473586 -0.0005233506626360816 0.0 -0.0009366625697770931 -0.0032968814180027264 -0.006916158940177639 -0.011603943646723075 -0.017173741557928866 -0.02345581638058078 -0.030302609320021767 -0.03758052892866418 -0.045174137679385266 -0.05297786753907968 -0.06090197334983775 -0.0688619632302638 -0.07678505990776087 -0.08459808902347328 -0.09223536286458164 -0.09962647864698627 -0.10670607582913824 -0.11340208185555042 -0.11964688378246101 -0.12536598082267847 -0.13048993383730048 -0.13494343689116414 -0.13865766168699933 -0.14155995716660832 -0.1435864488890714 -0.1446726521260442 -0.14476628044724799 -0.14381898530285916 -0.14179926989695732 -0.1386853627093581 -0.1344779252023288 -0.12919373589483651 -0.12287754136180597 -0.11559581620182205 -0.10744672708257623 -0.09855288562420043 -0.08906818509559748 -0.07916844002797573 -0.06905411379384617 -0.05893832405948396 -0.049045413480762794 -0.03959703808759434 -0.030807951117746327 -0.022872307609999774 -0.015959197225609355 -0.010201993214861454 -0.005696196607888058 -0.0024939393877392714 -0.0006052314736957568 0.0 -0.0008567205798733 -0.0033938576828011512 -0.007277097660580283 -0.012280995438402699 -0.018201254839431604 -0.024855352985698173 -0.03208119644363181 -0.039741712160934556 -0.04771610706188577 -0.055904362917863964 -0.06421561363075282 -0.07257329115088533 -0.08090209322596757 -0.0891353108764317 -0.09720208352705702 -0.10503715394085723 -0.11256856361116237 -0.11972894850696397 -0.12644339452124126 -0.13264148683697474 -0.1382453731620952 -0.14318221055727376 -0.1473727638987098 -0.15074416096458101 -0.15321942057708626 -0.1547305291940343 -0.15520923434052394 -0.15460045108663084 -0.15285450544556797 -0.1499407470953443 -0.14584114803889428 -0.14056369327183535 -0.1341368042533403 -0.12662161221214985 -0.11810614565047395 -0.108715102958446 -0.09860234267515731 -0.08795658589499165 -0.07699087072627878 -0.06594315539516694 -0.055062409027492175 -0.04460454681604631 -0.03481662200437627 -0.025930405718087395 -0.018147810386780327 -0.011635513719138001 -0.006514981086151728 -0.002860743730459653 -0.0006965915767660792 0.0 -0.0008678838061795366 -0.003573377008479057 -0.0076966473637180306 -0.01297245165617488 -0.01918446044847114 -0.026141188446542785 -0.033680500204171245 -0.041662422971311064 -0.049972347134008055 -0.0585086001492839 -0.06718639959921145 -0.07592439788722007 -0.08465165300930652 -0.09329470710378009 -0.10178733274453129 -0.11005777462612604 -0.11803998148210888 -0.12566061745128004 -0.13285100874361636 -0.13953414687602597 -0.14563709703274832 -0.15107845689948934 -0.15578115137250706 -0.15966079390717058 -0.16263886352325588 -0.16463236088535585 -0.1655674231819376 -0.16537059566631904 -0.16398292444647838 -0.16135299127620892 -0.15745133079149598 -0.15226501236638296 -0.14581179137520292 -0.13813543686172114 -0.12931838085604183 -0.11947629710680925 -0.10876739207843855 -0.09738429883279602 -0.08555805736327203 -0.07354578429135687 -0.06162840192331853 -0.050094203837024336 -0.03923159226829676 -0.02931114497120837 -0.020576965886824602 -0.01323159360910335 -0.007430222355019915 -0.0032721002387549507 -0.0007997779100492066 0.0 -0.0010050260055574102 -0.00382834155594175 -0.00811621165193998 -0.013589972851645545 -0.02002208280069967 -0.027222508547069 -0.03502707292605483 -0.04330012697336903 -0.05192252182200086 -0.06079484372359393 -0.06982418568579157 -0.07893098200907601 -0.08803622315071878 -0.09707105558166468 -0.1059635513110964 -0.11464957621764837 -0.12305886851265112 -0.13112666328092246 -0.1387796262825417 -0.14594813408275595 -0.15255263508405495 -0.1585164455288893 -0.1637529511272534 -0.16817880478719477 -0.17170234274086124 -0.17423721066550207 -0.17569239156077096 -0.1759864059668518 -0.1750393060430629 -0.17278755661909084 -0.1691781249711207 -0.16418384566568311 -0.1577992338857166 -0.1500555040223595 -0.14101693116730266 -0.13079380139429933 -0.11953723501731255 -0.10744757773552449 -0.09476516023031997 -0.08177176256677453 -0.06877567340904506 -0.056105638860860604 -0.04409121133074278 -0.03305179552310984 -0.023276558055010554 -0.015013855963654394 -0.008456378163741052 -0.00373584917223225 -0.0009167622540580866 0.0 -0.0011628881115220214 -0.004048090113028568 -0.008433061597746592 -0.014048467900091711 -0.020663366473227526 -0.028081567371196457 -0.03613869983528785 -0.044690192531074466 -0.05361455183781577 -0.06280113713963319 -0.07215696930471173 -0.08159423983233977 -0.09103946312754528 -0.10041966037603338 -0.10967250795782055 -0.1187314205577872 -0.1275366778274027 -0.13602036630204478 -0.14411851194430766 -0.15175646857311878 -0.1588617405701549 -0.16535010539322803 -0.1711388241869551 -0.17613380160928852 -0.1802431242588646 -0.18336567935977474 -0.1854052021496575 -0.18626084590680858 -0.18584203193414145 -0.18406139450308215 -0.18085061190700238 -0.1761558319575968 -0.1699541996102144 -0.16225116875496556 -0.15309653419560712 -0.14258192045678147 -0.13085389828802094 -0.11810874906748746 -0.10459933429768964 -0.09062390288600225 -0.07652396541293227 -0.06266566108442434 -0.0494288874004004 -0.03718376719756726 -0.02627574967760475 -0.01700374546151789 -0.009608478109444075 -0.004259146228960402 -0.0010499190568449834 0.0 -0.0012105881868885822 -0.004140928894088223 -0.008608103392195391 -0.014357685657636126 -0.02115111539653159 -0.028785237411028956 -0.037082178669253035 -0.04589148045476538 -0.05507912240348951 -0.06453427222983407 -0.07415710963223686 -0.08386712184303817 -0.09358859339399975 -0.10325973642514014 -0.1128168456239537 -0.12220486102246403 -0.13136151565405438 -0.14022936440211584 -0.14874038451352425 -0.15682887031669995 -0.1644165918149754 -0.1714260405104352 -0.17776637843304022 -0.18334687154937862 -0.18806404890304407 -0.19181547668287738 -0.194488678033249 -0.1959756193518398 -0.19616399545167543 -0.19495287001534156 -0.19224683000110435 -0.18797302145076544 -0.18207824365808348 -0.17454694613212246 -0.1654003442866869 -0.1547136402562289 -0.14261467359849836 -0.1292969435582386 -0.11501377055024431 -0.10008270418604677 -0.08487118062098245 -0.0697893819751201 -0.0552665874018441 -0.04173442025