# vtk DataFile Version 3.0
vtk output
ASCII
DATASET STRUCTURED_GRID
DIMENSIONS 51 51 1
POINTS 2601 float
0.0 0.0 0.0
0.02 0.0 0.0
0.04 0.0 0.0
0.06 0.0 0.0
0.08 0.0 0.0
0.1 0.0 0.0
0.12 0.0 0.0
0.14 0.0 0.0
0.16 0.0 0.0
0.18 0.0 0.0
0.2 0.0 0.0
0.22 0.0 0.0
0.24 0.0 0.0
0.26 0.0 0.0
0.28 0.0 0.0
0.3 0.0 0.0
0.32 0.0 0.0
0.34 0.0 0.0
0.36 0.0 0.0
0.38 0.0 0.0
0.4 0.0 0.0
0.42 0.0 0.0
0.44 0.0 0.0
0.46 0.0 0.0
0.48 0.0 0.0
0.5 0.0 0.0
0.52 0.0 0.0
0.54 0.0 0.0
0.56 0.0 0.0
0.58 0.0 0.0
0.6 0.0 0.0
0.62 0.0 0.0
0.64 0.0 0.0
0.66 0.0 0.0
0.68 0.0 0.0
0.7000000000000001 0.0 0.0
0.72 0.0 0.0
0.74 0.0 0.0
0.76 0.0 0.0
0.78 0.0 0.0
0.8 0.0 0.0
0.8200000000000001 0.0 0.0
0.84 0.0 0.0
0.86 0.0 0.0
0.88 0.0 0.0
0.9 0.0 0.0
0.92 0.0 0.0
0.9400000000000001 0.0 0.0
0.96 0.0 0.0
0.98 0.0 0.0
1.0 0.0 0.0
0.0 0.02 0.0
0.02 0.02 0.0
0.04 0.02 0.0
0.06 0.02 0.0
0.08 0.02 0.0
0.1 0.02 0.0
0.12 0.02 0.0
0.14 0.02 0.0
0.16 0.02 0.0
0.18 0.02 0.0
0.2 0.02 0.0
0.22 0.02 0.0
0.24 0.02 0.0
0.26 0.02 0.0
0.28 0.02 0.0
0.3 0.02 0.0
0.32 0.02 0.0
0.34 0.02 0.0
0.36 0.02 0.0
0.38 0.02 0.0
0.4 0.02 0.0
0.42 0.02 0.0
0.44 0.02 0.0
0.46 0.02 0.0
0.48 0.02 0.0
0.5 0.02 0.0
0.52 0.02 0.0
0.54 0.02 0.0
0.56 0.02 0.0
0.58 0.02 0.0
0.6 0.02 0.0
0.62 0.02 0.0
0.64 0.02 0.0
0.66 0.02 0.0
0.68 0.02 0.0
0.7000000000000001 0.02 0.0
0.72 0.02 0.0
0.74 0.02 0.0
0.76 0.02 0.0
0.78 0.02 0.0
0.8 0.02 0.0
0.8200000000000001 0.02 0.0
0.84 0.02 0.0
0.86 0.02 0.0
0.88 0.02 0.0
0.9 0.02 0.0
0.92 0.02 0.0
0.9400000000000001 0.02 0.0
0.96 0.02 0.0
0.98 0.02 0.0
1.0 0.02 0.0
0.0 0.04 0.0
0.02 0.04 0.0
0.04 0.04 0.0
0.06 0.04 0.0
0.08 0.04 0.0
0.1 0.04 0.0
0.12 0.04 0.0
0.14 0.04 0.0
0.16 0.04 0.0
0.18 0.04 0.0
0.2 0.04 0.0
0.22 0.04 0.0
0.24 0.04 0.0
0.26 0.04 0.0
0.28 0.04 0.0
0.3 0.04 0.0
0.32 0.04 0.0
0.34 0.04 0.0
0.36 0.04 0.0
0.38 0.04 0.0
0.4 0.04 0.0
0.42 0.04 0.0
0.44 0.04 0.0
0.46 0.04 0.0
0.48 0.04 0.0
0.5 0.04 0.0
0.52 0.04 0.0
0.54 0.04 0.0
0.56 0.04 0.0
0.58 0.04 0.0
0.6 0.04 0.0
0.62 0.04 0.0
0.64 0.04 0.0
0.66 0.04 0.0
0.68 0.04 0.0
0.7000000000000001 0.04 0.0
0.72 0.04 0.0
0.74 0.04 0.0
0.76 0.04 0.0
0.78 0.04 0.0
0.8 0.04 0.0
0.8200000000000001 0.04 0.0
0.84 0.04 0.0
0.86 0.04 0.0
0.88 0.04 0.0
0.9 0.04 0.0
0.92 0.04 0.0
0.9400000000000001 0.04 0.0
0.96 0.04 0.0
0.98 0.04 0.0
1.0 0.04 0.0
0.0 0.06 0.0
0.02 0.06 0.0
0.04 0.06 0.0
0.06 0.06 0.0
0.08 0.06 0.0
0.1 0.06 0.0
0.12 0.06 0.0
0.14 0.06 0.0
0.16 0.06 0.0
0.18 0.06 0.0
0.2 0.06 0.0
0.22 0.06 0.0
0.24 0.06 0.0
0.26 0.06 0.0
0.28 0.06 0.0
0.3 0.06 0.0
0.32 0.06 0.0
0.34 0.06 0.0
0.36 0.06 0.0
0.38 0.06 0.0
0.4 0.06 0.0
0.42 0.06 0.0
0.44 0.06 0.0
0.46 0.06 0.0
0.48 0.06 0.0
0.5 0.06 0.0
0.52 0.06 0.0
0.54 0.06 0.0
0.56 0.06 0.0
0.58 0.06 0.0
0.6 0.06 0.0
0.62 0.06 0.0
0.64 0.06 0.0
0.66 0.06 0.0
0.68 0.06 0.0
0.7000000000000001 0.06 0.0
0.72 0.06 0.0
0.74 0.06 0.0
0.76 0.06 0.0
0.78 0.06 0.0
0.8 0.06 0.0
0.8200000000000001 0.06 0.0
0.84 0.06 0.0
0.86 0.06 0.0
0.88 0.06 0.0
0.9 0.06 0.0
0.92 0.06 0.0
0.9400000000000001 0.06 0.0
0.96 0.06 0.0
0.98 0.06 0.0
1.0 0.06 0.0
0.0 0.08 0.0
0.02 0.08 0.0
0.04 0.08 0.0
0.06 0.08 0.0
0.08 0.08 0.0
0.1 0.08 0.0
0.12 0.08 0.0
0.14 0.08 0.0
0.16 0.08 0.0
0.18 0.08 0.0
0.2 0.08 0.0
0.22 0.08 0.0
0.24 0.08 0.0
0.26 0.08 0.0
0.28 0.08 0.0
0.3 0.08 0.0
0.32 0.08 0.0
0.34 0.08 0.0
0.36 0.08 0.0
0.38 0.08 0.0
0.4 0.08 0.0
0.42 0.08 0.0
0.44 0.08 0.0
0.46 0.08 0.0
0.48 0.08 0.0
0.5 0.08 0.0
0.52 0.08 0.0
0.54 0.08 0.0
0.56 0.08 0.0
0.58 0.08 0.0
0.6 0.08 0.0
0.62 0.08 0.0
0.64 0.08 0.0
0.66 0.08 0.0
0.68 0.08 0.0
0.7000000000000001 0.08 0.0
0.72 0.08 0.0
0.74 0.08 0.0
0.76 0.08 0.0
0.78 0.08 0.0
0.8 0.08 0.0
0.8200000000000001 0.08 0.0
0.84 0.08 0.0
0.86 0.08 0.0
0.88 0.08 0.0
0.9 0.08 0.0
0.92 0.08 0.0
0.9400000000000001 0.08 0.0
0.96 0.08 0.0
0.98 0.08 0.0
1.0 0.08 0.0
0.0 0.1 0.0
0.02 0.1 0.0
0.04 0.1 0.0
0.06 0.1 0.0
0.08 0.1 0.0
0.1 0.1 0.0
0.12 0.1 0.0
0.14 0.1 0.0
0.16 0.1 0.0
0.18 0.1 0.0
0.2 0.1 0.0
0.22 0.1 0.0
0.24 0.1 0.0
0.26 0.1 0.0
0.28 0.1 0.0
0.3 0.1 0.0
0.32 0.1 0.0
0.34 0.1 0.0
0.36 0.1 0.0
0.38 0.1 0.0
0.4 0.1 0.0
0.42 0.1 0.0
0.44 0.1 0.0
0.46 0.1 0.0
0.48 0.1 0.0
0.5 0.1 0.0
0.52 0.1 0.0
0.54 0.1 0.0
0.56 0.1 0.0
0.58 0.1 0.0
0.6 0.1 0.0
0.62 0.1 0.0
0.64 0.1 0.0
0.66 0.1 0.0
0.68 0.1 0.0
0.7000000000000001 0.1 0.0
0.72 0.1 0.0
0.74 0.1 0.0
0.76 0.1 0.0
0.78 0.1 0.0
0.8 0.1 0.0
0.8200000000000001 0.1 0.0
0.84 0.1 0.0
0.86 0.1 0.0
0.88 0.1 0.0
0.9 0.1 0.0
0.92 0.1 0.0
0.9400000000000001 0.1 0.0
0.96 0.1 0.0
0.98 0.1 0.0
1.0 0.1 0.0
0.0 0.12 0.0
0.02 0.12 0.0
0.04 0.12 0.0
0.06 0.12 0.0
0.08 0.12 0.0
0.1 0.12 0.0
0.12 0.12 0.0
0.14 0.12 0.0
0.16 0.12 0.0
0.18 0.12 0.0
0.2 0.12 0.0
0.22 0.12 0.0
0.24 0.12 0.0
0.26 0.12 0.0
0.28 0.12 0.0
0.3 0.12 0.0
0.32 0.12 0.0
0.34 0.12 0.0
0.36 0.12 0.0
0.38 0.12 0.0
0.4 0.12 0.0
0.42 0.12 0.0
0.44 0.12 0.0
0.46 0.12 0.0
0.48 0.12 0.0
0.5 0.12 0.0
0.52 0.12 0.0
0.54 0.12 0.0
0.56 0.12 0.0
0.58 0.12 0.0
0.6 0.12 0.0
0.62 0.12 0.0
0.64 0.12 0.0
0.66 0.12 0.0
0.68 0.12 0.0
0.7000000000000001 0.12 0.0
0.72 0.12 0.0
0.74 0.12 0.0
0.76 0.12 0.0
0.78 0.12 0.0
0.8 0.12 0.0
0.8200000000000001 0.12 0.0
0.84 0.12 0.0
0.86 0.12 0.0
0.88 0.12 0.0
0.9 0.12 0.0
0.92 0.12 0.0
0.9400000000000001 0.12 0.0
0.96 0.12 0.0
0.98 0.12 0.0
1.0 0.12 0.0
0.0 0.14 0.0
0.02 0.14 0.0
0.04 0.14 0.0
0.06 0.14 0.0
0.08 0.14 0.0
0.1 0.14 0.0
0.12 0.14 0.0
0.14 0.14 0.0
0.16 0.14 0.0
0.18 0.14 0.0
0.2 0.14 0.0
0.22 0.14 0.0
0.24 0.14 0.0
0.26 0.14 0.0
0.28 0.14 0.0
0.3 0.14 0.0
0.32 0.14 0.0
0.34 0.14 0.0
0.36 0.14 0.0
0.38 0.14 0.0
0.4 0.14 0.0
0.42 0.14 0.0
0.44 0.14 0.0
0.46 0.14 0.0
0.48 0.14 0.0
0.5 0.14 0.0
0.52 0.14 0.0
0.54 0.14 0.0
0.56 0.14 0.0
0.58 0.14 0.0
0.6 0.14 0.0
0.62 0.14 0.0
0.64 0.14 0.0
0.66 0.14 0.0
0.68 0.14 0.0
0.7000000000000001 0.14 0.0
0.72 0.14 0.0
0.74 0.14 0.0
0.76 0.14 0.0
0.78 0.14 0.0
0.8 0.14 0.0
0.8200000000000001 0.14 0.0
0.84 0.14 0.0
0.86 0.14 0.0
0.88 0.14 0.0
0.9 0.14 0.0
0.92 0.14 0.0
0.9400000000000001 0.14 0.0
0.96 0.14 0.0
0.98 0.14 0.0
1.0 0.14 0.0
0.0 0.16 0.0
0.02 0.16 0.0
0.04 0.16 0.0
0.06 0.16 0.0
0.08 0.16 0.0
0.1 0.16 0.0
0.12 0.16 0.0
0.14 0.16 0.0
0.16 0.16 0.0
0.18 0.16 0.0
0.2 0.16 0.0
0.22 0.16 0.0
0.24 0.16 0.0
0.26 0.16 0.0
0.28 0.16 0.0
0.3 0.16 0.0
0.32 0.16 0.0
0.34 0.16 0.0
0.36 0.16 0.0
0.38 0.16 0.0
0.4 0.16 0.0
0.42 0.16 0.0
0.44 0.16 0.0
0.46 0.16 0.0
0.48 0.16 0.0
0.5 0.16 0.0
0.52 0.16 0.0
0.54 0.16 0.0
0.56 0.16 0.0
0.58 0.16 0.0
0.6 0.16 0.0
0.62 0.16 0.0
0.64 0.16 0.0
0.66 0.16 0.0
0.68 0.16 0.0
0.7000000000000001 0.16 0.0
0.72 0.16 0.0
0.74 0.16 0.0
0.76 0.16 0.0
0.78 0.16 0.0
0.8 0.16 0.0
0.8200000000000001 0.16 0.0
0.84 0.16 0.0
0.86 0.16 0.0
0.88 0.16 0.0
0.9 0.16 0.0
0.92 0.16 0.0
0.9400000000000001 0.16 0.0
0.96 0.16 0.0
0.98 0.16 0.0
1.0 0.16 0.0
0.0 0.18 0.0
0.02 0.18 0.0
0.04 0.18 0.0
0.06 0.18 0.0
0.08 0.18 0.0
0.1 0.18 0.0
0.12 0.18 0.0
0.14 0.18 0.0
0.16 0.18 0.0
0.18 0.18 0.0
0.2 0.18 0.0
0.22 0.18 0.0
0.24 0.18 0.0
0.26 0.18 0.0
0.28 0.18 0.0
0.3 0.18 0.0
0.32 0.18 0.0
0.34 0.18 0.0
0.36 0.18 0.0
0.38 0.18 0.0
0.4 0.18 0.0
0.42 0.18 0.0
0.44 0.18 0.0
0.46 0.18 0.0
0.48 0.18 0.0
0.5 0.18 0.0
0.52 0.18 0.0
0.54 0.18 0.0
0.56 0.18 0.0
0.58 0.18 0.0
0.6 0.18 0.0
0.62 0.18 0.0
0.64 0.18 0.0
0.66 0.18 0.0
0.68 0.18 0.0
0.7000000000000001 0.18 0.0
0.72 0.18 0.0
0.74 0.18 0.0
0.76 0.18 0.0
0.78 0.18 0.0
0.8 0.18 0.0
0.8200000000000001 0.18 0.0
0.84 0.18 0.0
0.86 0.18 0.0
0.88 0.18 0.0
0.9 0.18 0.0
0.92 0.18 0.0
0.9400000000000001 0.18 0.0
0.96 0.18 0.0
0.98 0.18 0.0
1.0 0.18 0.0
0.0 0.2 0.0
0.02 0.2 0.0
0.04 0.2 0.0
0.06 0.2 0.0
0.08 0.2 0.0
0.1 0.2 0.0
0.12 0.2 0.0
0.14 0.2 0.0
0.16 0.2 0.0
0.18 0.2 0.0
0.2 0.2 0.0
0.22 0.2 0.0
0.24 0.2 0.0
0.26 0.2 0.0
0.28 0.2 0.0
0.3 0.2 0.0
0.32 0.2 0.0
0.34 0.2 0.0
0.36 0.2 0.0
0.38 0.2 0.0
0.4 0.2 0.0
0.42 0.2 0.0
0.44 0.2 0.0
0.46 0.2 0.0
0.48 0.2 0.0
0.5 0.2 0.0
0.52 0.2 0.0
0.54 0.2 0.0
0.56 0.2 0.0
0.58 0.2 0.0
0.6 0.2 0.0
0.62 0.2 0.0
0.64 0.2 0.0
0.66 0.2 0.0
0.68 0.2 0.0
0.7000000000000001 0.2 0.0
0.72 0.2 0.0
0.74 0.2 0.0
0.76 0.2 0.0
0.78 0.2 0.0
0.8 0.2 0.0
0.8200000000000001 0.2 0.0
0.84 0.2 0.0
0.86 0.2 0.0
0.88 0.2 0.0
0.9 0.2 0.0
0.92 0.2 0.0
0.9400000000000001 0.2 0.0
0.96 0.2 0.0
0.98 0.2 0.0
1.0 0.2 0.0
0.0 0.22 0.0
0.02 0.22 0.0
0.04 0.22 0.0
0.06 0.22 0.0
0.08 0.22 0.0
0.1 0.22 0.0
0.12 0.22 0.0
0.14 0.22 0.0
0.16 0.22 0.0
0.18 0.22 0.0
0.2 0.22 0.0
0.22 0.22 0.0
0.24 0.22 0.0
0.26 0.22 0.0
0.28 0.22 0.0
0.3 0.22 0.0
0.32 0.22 0.0
0.34 0.22 0.0
0.36 0.22 0.0
0.38 0.22 0.0
0.4 0.22 0.0
0.42 0.22 0.0
0.44 0.22 0.0
0.46 0.22 0.0
0.48 0.22 0.0
0.5 0.22 0.0
0.52 0.22 0.0
0.54 0.22 0.0
0.56 0.22 0.0
0.58 0.22 0.0
0.6 0.22 0.0
0.62 0.22 0.0
0.64 0.22 0.0
0.66 0.22 0.0
0.68 0.22 0.0
0.7000000000000001 0.22 0.0
0.72 0.22 0.0
0.74 0.22 0.0
0.76 0.22 0.0
0.78 0.22 0.0
0.8 0.22 0.0
0.8200000000000001 0.22 0.0
0.84 0.22 0.0
0.86 0.22 0.0
0.88 0.22 0.0
0.9 0.22 0.0
0.92 0.22 0.0
0.9400000000000001 0.22 0.0
0.96 0.22 0.0
0.98 0.22 0.0
1.0 0.22 0.0
0.0 0.24 0.0
0.02 0.24 0.0
0.04 0.24 0.0
0.06 0.24 0.0
0.08 0.24 0.0
0.1 0.24 0.0
0.12 0.24 0.0
0.14 0.24 0.0
0.16 0.24 0.0
0.18 0.24 0.0
0.2 0.24 0.0
0.22 0.24 0.0
0.24 0.24 0.0
0.26 0.24 0.0
0.28 0.24 0.0
0.3 0.24 0.0
0.32 0.24 0.0
0.34 0.24 0.0
0.36 0.24 0.0
0.38 0.24 0.0
0.4 0.24 0.0
0.42 0.24 0.0
0.44 0.24 0.0
0.46 0.24 0.0
0.48 0.24 0.0
0.5 0.24 0.0
0.52 0.24 0.0
0.54 0.24 0.0
0.56 0.24 0.0
0.58 0.24 0.0
0.6 0.24 0.0
0.62 0.24 0.0
0.64 0.24 0.0
0.66 0.24 0.0
0.68 0.24 0.0
0.7000000000000001 0.24 0.0
0.72 0.24 0.0
0.74 0.24 0.0
0.76 0.24 0.0
0.78 0.24 0.0
0.8 0.24 0.0
0.8200000000000001 0.24 0.0
0.84 0.24 0.0
0.86 0.24 0.0
0.88 0.24 0.0
0.9 0.24 0.0
0.92 0.24 0.0
0.9400000000000001 0.24 0.0
0.96 0.24 0.0
0.98 0.24 0.0
1.0 0.24 0.0
0.0 0.26 0.0
0.02 0.26 0.0
0.04 0.26 0.0
0.06 0.26 0.0
0.08 0.26 0.0
0.1 0.26 0.0
0.12 0.26 0.0
0.14 0.26 0.0
0.16 0.26 0.0
0.18 0.26 0.0
0.2 0.26 0.0
0.22 0.26 0.0
0.24 0.26 0.0
0.26 0.26 0.0
0.28 0.26 0.0
0.3 0.26 0.0
0.32 0.26 0.0
0.34 0.26 0.0
0.36 0.26 0.0
0.38 0.26 0.0
0.4 0.26 0.0
0.42 0.26 0.0
0.44 0.26 0.0
0.46 0.26 0.0
0.48 0.26 0.0
[...]
CELL_DATA 2500
SCALARS u float 1
LOOKUP_TABLE u_cell_table
0.0001920541071922061 0.0004949675709685142 0.0005573387209452412 0.0003408614061503821 -4.7939365795516696e-05 -0.00046961703747591064 -0.000819477394542128 -0.0010620232592461114 -0.0012264004246905344 -0.0013726506010547168 -0.0015528419911319325 -0.0017878559168685623 -0.0020663918587022273 -0.002359452641797163 -0.002638142238488119 -0.002885188246440925 -0.0030970937666475475 -0.003279488685367542 -0.0034404758094991553 -0.003585739451696744 -0.0037167524660733 -0.003831435388681254 -0.003925895391662706 -0.003996142228904898 -0.00403924226062152 -0.004053756422181363 -0.004039496843606368 -0.00399682992784866 -0.003925989904493627 -0.0038268954429681624 -0.00369957136860342 -0.00354467686859453 -0.0033635091312454696 -0.003157443130246414 -0.002927574453763045 -0.0026752031105597837 -0.0024029178576584786 -0.0021151331228180976 -0.001817546455560897 -0.0015159626247263891 -0.0012159932498594407 -0.0009238009717758243 -0.0006470751330719845 -0.0003944960205154635 -0.0001735905863811931 1.1065273582368799e-05 0.00016706121306533494 0.0003244471111345633 0.0005841297685417567 0.0 0.0002967666727907822 0.0004050475154243322 0.0002521127700847683 -0.00019400815583349874 -0.0008432943880044697 -0.0015678661665387392 -0.002272977669833522 -0.002924576669257323 -0.003540332470526806 -0.004159228546223862 -0.004811030306428116 -0.005500788344815929 -0.006210848899104978 -0.006913183892537511 -0.007582297511633073 -0.008202355675057584 -0.008767491710933136 -0.009277954846580398 -0.009735604888305356 -0.010140977254578175 -0.0104923565760694 -0.010786191331485439 -0.011018018159733493 -0.011183404359627811 -0.01127869634805645 -0.011301429167874981 -0.011250247690703256 -0.011124450679728727 -0.010923537625803961 -0.010647294707974903 -0.010296334817757657 -0.009872640932005095 -0.009379320467741516 -0.008820075505702088 -0.008198882533475246 -0.007521000611629449 -0.006793996840128219 -0.006028584224493974 -0.005237557375386723 -0.004435182285383328 -0.0036365259515880434 -0.0028589920142336163 -0.0021221601474773954 -0.0014475691626915864 -0.0008553326515573866 -0.00036402196967100437 1.0192225311639219e-05 0.00024732308946875215 0.00028866139648826177 0.0 0.00030137851464359346 8.830430381242535e-05 -0.00039996728869627087 -0.0010960053880298896 -0.0019210371421313533 -0.0028102839702263335 -0.003737923487471613 -0.004707833332378736 -0.005730247852174016 -0.006803434333379539 -0.007908966484208156 -0.009018432346158706 -0.010103869362549893 -0.011144875299104922 -0.012129819226168612 -0.013052804176296472 -0.013909681956976578 -0.014695563986880534 -0.015404389975560703 -0.016029714420732213 -0.01656556369985335 -0.017006756596649554 -0.017348785942554113 -0.017587666024455443 -0.017719978751380584 -0.01774298432844874 -0.01765458516349009 -0.01745313573752413 -0.017137475889542005 -0.016707355875001155 -0.01616411262836283 -0.015510821137355397 -0.014751968996487539 -0.013892882481493106 -0.012940214146885353 -0.011902815178345925 -0.010793047435351328 -0.009626456457791728 -0.008421451589924609 -0.007198147335603871 -0.005979493225724433 -0.004791342052960047 -0.003663247414327564 -0.002626062317047559 -0.0017113551586239975 -0.0009496580920065236 -0.0003742881575370604 -1.989917267802186e-05 7.814027036538151e-05 0.0 0.00015133661009172222 -0.00031895942896219195 -0.0010548008199277115 -0.0019351955399726077 -0.002911459520156719 -0.0039786584187620575 -0.005154075978747362 -0.006447756208462803 -0.007843741768631568 -0.009301892801862385 -0.010773576652226053 -0.01221817928230235 -0.013611014707750665 -0.014941254812552384 -0.01620452199309417 -0.017396002215885654 -0.018507416859554447 -0.019527783673888164 -0.020445878501805598 -0.02125223625034809 -0.021939697853025356 -0.022502787376243404 -0.022936813386607517 -0.023237399015999364 -0.023400524270173483 -0.023422737931682137 -0.023301200178617386 -0.023033677343705622 -0.022618763260546314 -0.022056524656940264 -0.021348990251369826 -0.02050020108201472 -0.01951560383633301 -0.018402058993377414 -0.01716833455380464 -0.015826608998037756 -0.014392784496447477 -0.012886693085531808 -0.011330683351637828 -0.009750199533569346 -0.008173674887485693 -0.006634225489051664 -0.005167927000638801 -0.003813541323163231 -0.0026099434387564843 -0.0015965292577481407 -0.0008119225603586593 -0.0002922728513836347 -5.340283281520078e-05 0.0 -0.00011200007892622516 -0.000746295543276239 -0.0016160586720083455 -0.0026145328393289598 -0.003737998104961147 -0.005019399355837154 -0.006478834674314726 -0.008098859261854333 -0.00982697674205505 -0.011597372266577909 -0.013354486579054947 -0.015064765137712988 -0.016714134932210578 -0.018297623602053625 -0.01980951823391907 -0.021238952346421654 -0.022570935942600557 -0.023789926284799215 -0.024882867050756236 -0.025840186623583304 -0.026654989346884015 -0.027321606881048822 -0.027834597990003533 -0.028188578320424457 -0.02837857696266035 -0.028400359173933402 -0.02825050433317805 -0.027926419545501614 -0.02742671868538565 -0.026751804764446108 -0.02590433849798087 -0.024888962411934917 -0.023712044663456534 -0.02238164236996726 -0.0209087105993935 -0.019307849801337096 -0.017598184482008783 -0.015802320390152485 -0.013946429526798856 -0.012059510189034273 -0.01017527811227617 -0.008331349905937955 -0.0065696457234575255 -0.004933502313289939 -0.0034681550669233402 -0.002217580464986374 -0.0012241022754722985 -0.0005248725024189686 -0.00014000518564201992 0.0 -0.00037896959687645326 -0.0010896076229005534 -0.002024886245111091 -0.0031303599870308608 -0.0044322747419888175 -0.0059634833994945124 -0.007714205548987694 -0.009628650322936213 -0.011629082769360588 -0.01364539185625658 -0.015632245466221238 -0.01756862181541956 -0.019446327039968687 -0.021257838050265085 -0.0229901352933796 -0.02462518688804603 -0.026143882332156552 -0.027529729128833506 -0.028770344629058028 -0.029856786697420742 -0.030781913179480123 -0.03153901849119891 -0.03212136408240424 -0.032522471675974614 -0.03273660874658024 -0.03275902266193682 -0.03258588456866239 -0.03221436478600873 -0.03164304534443579 -0.03087259612016165 -0.029905995557472916 -0.02874840935271914 -0.027406814502455277 -0.025890611670877656 -0.024212351402729284 -0.02238902371475567 -0.020441769176264522 -0.018396008469528755 -0.016280234330672768 -0.01412729556003925 -0.011974108362113853 -0.009862956322690377 -0.007839000369913928 -0.005950484063858586 -0.004246285929341668 -0.002775693330211295 -0.0015840076923553294 -0.0007146834866448557 -0.0002007678861448873 0.0 -0.0005572787504619465 -0.0012885934568289247 -0.0022782488151765487 -0.0035229393767338083 -0.005044862289319462 -0.0068412910384584615 -0.00885944777748524 -0.011016134037870946 -0.013230478011186531 -0.015445751727541536 -0.017631923161809945 -0.01977473075463533 -0.021862579005810404 -0.02387925210200349 -0.02580376704223775 -0.027614134661433372 -0.029291087604278333 -0.030819660840471583 -0.03218862331403001 -0.03338889677653904 -0.03441213528154872 -0.03525009177290064 -0.03589476260665815 -0.03633887008006181 -0.03657620349236998 -0.036601602881795425 -0.0364108382248903 -0.03600073201617696 -0.03536975046849534 -0.034518584033214936 -0.03345043432836049 -0.03217069934096098 -0.03068706559508671 -0.029009854357917687 -0.027153277748456058 -0.025135788664184838 -0.022980657833711716 -0.02071490394271676 -0.018369833705032278 -0.01598058754583577 -0.013587935918069704 -0.011236797859143655 -0.008976527047695696 -0.006858287529476446 -0.004935967208657764 -0.0032627584111404742 -0.0018898720681016178 -0.0008680989284342088 -0.00024553161591174164 0.0 -0.0006082120222171556 -0.0013511421485444897 -0.0024276430275765276 -0.003854134027952389 -0.0056165205558509025 -0.007661232620415515 -0.009901908767625051 -0.01224997642937034 -0.014639371192594624 -0.01703150942804689 -0.019405077692444254 -0.02174265063879816 -0.024023088983848452 -0.026221353687321924 -0.028312267176270854 -0.030274034627658708 -0.03208947953685638 -0.0337452356961473 -0.03523015567935242 -0.036533996954211445 -0.03764682359218895 -0.03855905704539065 -0.0392618541637598 -0.03974744675126588 -0.04000919438733249 -0.04004141716799336 -0.03983929076083994 -0.039399168612396306 -0.03871921724276259 -0.03780006746836003 -0.036644893667866635 -0.03525935009841776 -0.03365150067289211 -0.03183265504104584 -0.02981798099901409 -0.02762748751117747 -0.02528559343050125 -0.02282140437083949 -0.020267888642971865 -0.017663349596810603 -0.015050891448246393 -0.012479258625723374 -0.010000414627010864 -0.0076701329590823306 -0.005545915417107699 -0.0036868253270910035 -0.0021494464295892354 -0.0009938086113801918 -0.0002795668886142955 0.0 -0.0005511062504417794 -0.0013333204332873576 -0.0025424930829710986 -0.004174186304821466 -0.006163671161887473 -0.008415544452054877 -0.010832249572874254 -0.013338604133723706 -0.015888114993485674 -0.018452784295226874 -0.02100896199909735 -0.023529450515990005 -0.025983749289722007 -0.02834237135103057 -0.030580447909316945 -0.032678534623916934 -0.03462126055131398 -0.03639546360548902 -0.037988923586842756 -0.03938990600812339 -0.04058722753904385 -0.041570512706141656 -0.04233042408057764 -0.042858725365119504 -0.04314815888013155 -0.043192267091575726 -0.042985465439539336 -0.042523493620765976 -0.04180416428141876 -0.040827858294000624 -0.03959768250018693 -0.038119254206664614 -0.036401019003701886 -0.034454725031800935 -0.03229651907538339 -0.02994717086167652 -0.027432615495904485 -0.02478317968363439 -0.022034359995578536 -0.019226558256578746 -0.016406447700964055 -0.013625351612086264 -0.01093956854347139 -0.008408304658655644 -0.006094574748149241 -0.004062117991383803 -0.002374619386702743 -0.0010997728604101743 -0.0003066893100728543 0.0 -0.0004440336226012362 -0.0013053420632327662 -0.0026766269098029167 -0.004504702035300645 -0.0066822835388669925 -0.009096023529502456 -0.01165782213921935 -0.01431173741678198 -0.01702290483082657 -0.019761623782839858 -0.02249432100468195 -0.025184016001096737 -0.02779556628643015 -0.03029987782515128 -0.03267456995086158 -0.03490203396216585 -0.03696706285089682 -0.03885543658808677 -0.04055357085356607 -0.0420486679883713 -0.043328892910105464 -0.04438343109058744 -0.045202457843104886 -0.04577704689488514 -0.046099036921240975 -0.046160998361323924 -0.045956464272829345 -0.045480530694196455 -0.04473053366250327 -0.04370653391400911 -0.04241129702736264 -0.0408503117841749 -0.03903193645783701 -0.036968276778972034 -0.03467579425203676 -0.03217621688371697 -0.02949632631596535 -0.026668384455868086 -0.023729703699262097 -0.02072394517126344 -0.017700443651675765 -0.014714686287394554 -0.011826390669778376 -0.009100080022947503 -0.006603200428310099 -0.00440575012180107 -0.002577299272522429 -0.0011935146108294175 -0.0003295556736669838 0.0 -0.0003515398659028492 -0.001319793362336376 -0.0028517192614880616 -0.004841755036794952 -0.007162757497765139 -0.009707172023312704 -0.012404674688791594 -0.015211241333809869 -0.01809048158088968 -0.02100223742653345 -0.02390241854263544 -0.026749034519885764 -0.029507377700551285 -0.032150977651455546 -0.034659268908769914 -0.037014652569818986 -0.03920075459102809 -0.041202050387726556 -0.04300409024624379 -0.044593638608363836 -0.04595855185688403 -0.04708756162535856 -0.04797012332564469 -0.04859634000544774 -0.04895695260777345 -0.049043458016203856 -0.04884849739305895 -0.04836646345675026 -0.04759414999986594 -0.046531048966458884 -0.04517940007042888 -0.04354411184948467 -0.04163324427606722 -0.03945866089525194 -0.03703714701424301 -0.03439084071120079 -0.031547864727131295 -0.028541936011336897 -0.025413165082673706 -0.022207888230624764 -0.018979458249487782 -0.015786867900636065 -0.01269501238711107 -0.009772968073268079 -0.007094250414614979 -0.00473408505104672 -0.002769098962677926 -0.001281115042802778 -0.0003504891417473871 0.0 -0.0003158829601415061 -0.0013946983368370498 -0.0030596260781564325 -0.005170404113299196 -0.007603561386985325 -0.010269179541116195 -0.01310931978516013 -0.01607851403847149 -0.019129000386728053 -0.022208791470640244 -0.025267926031584707 -0.02826465543384793 -0.031167005619942692 -0.03395032909816185 -0.03659388573003916 -0.03907870215903337 -0.041387050160284336 -0.04350267664163649 -0.04541091402217168 -0.04709839975245431 -0.04855263030874771 -0.04976164441020145 -0.05071392364924751 -0.051398435684508 -0.05180475437380171 -0.051923317715863615 -0.05174587195475136 -0.05126607153460778 -0.05047996204115808 -0.04938621892137711 -0.04798608556371565 -0.04628353535418162 -0.04428572896103272 -0.04200410308742734 -0.03945527055474687 -0.036662042286776754 -0.033653530506516656 -0.03046563522116265 -0.027140916919057175 -0.02372948216946712 -0.02028827147980136 -0.016881298511240886 -0.013578227918384868 -0.010454337989506266 -0.007588559285311167 -0.005062768561641987 -0.002959816438330783 -0.001367885699711417 -0.0003710359648104672 0.0 -0.00034448912174374704 -0.001516013303429321 -0.0032774152194371877 -0.005479782621389491 -0.00801615391917823 -0.010811361398764666 -0.013807116746890575 -0.01694580748438378 -0.020166076293476366 -0.02340856266832488 -0.026622901908547596 -0.029770029146118454 -0.03281980831660682 -0.03574724646797192 -0.03852997048589194 -0.04114750646656632 -0.043581445325947016 -0.045815492913403436 -0.0478350450693425 -0.049626514727584156 -0.05117678630349813 -0.052472983666852026 -0.0535024981123846 -0.05425313988658215 -0.05471336532859273 -0.05487260547078205 -0.054721726650358175 -0.054253502499413846 -0.05346296398875917 -0.05234747642051578 -0.050906793074432286 -0.049143297239343776 -0.047062874780820885 -0.04467603100944739 -0.041999247969397156 -0.03905570988681726 -0.035875958996065715 -0.03249783721414519 -0.02896714789107156 -0.025337509461633 -0.021670644791140004 -0.018035467325639 -0.014507996741120077 -0.011169511070693177 -0.008105892359412708 -0.0054053926479060085 -0.0031582151957057574 -0.0014578690847377965 -0.0003924595694164056 0.0 -0.00041601942096541075 -0.0016538699885610478 -0.0034846785373452796 -0.005771038781964473 -0.008421058726032733 -0.011362141194815614 -0.014524260534694489 -0.01783450038342801 -0.021222115964058656 -0.02462616281317053 -0.02799861911239733 -0.031302195618389865 -0.034506228953662836 -0.03758379529588314 -0.040510798589103544 -0.04326605046848206 -0.04583121966646622 -0.048190244318057955 -0.05032844387210278 -0.052231736617540166 -0.053886202944705155 -0.05527799255274387 -0.056393443878786476 -0.05721930618769896 -0.05774302749124705 -0.057953111095831046 -0.05783948389858314 -0.057393801243185424 -0.056609584348967235 -0.05548228227899556 -0.054009420786683374 -0.0521912381873509 -0.05003179228575565 -0.04754050257335684 -0.0447334198601682 -0.041634259940328634 -0.03827473869991399 -0.03469506917295232 -0.03094410584881355 -0.027079806811052477 -0.023168724760478716 -0.01928608446573547 -0.015514509651119958 -0.011942860282682238 -0.008664182471119837 -0.005774646200522834 -0.003371671571639805 -0.0015546988779134977 -0.00041552156334963254 0.0 -0.0004977830585636804 -0.0017814598357378739 -0.003674194483771853 -0.0060563697303646045 -0.008839858965703527 -0.011941938063623637 -0.015276366725822403 -0.018758682120833852 -0.022314915142151018 -0.02588578511128222 -0.02942483193555384 -0.032893982347250134 -0.03626026264806216 -0.03949471224773222 -0.04257241165438602 -0.045472319446643976 -0.04817647718576997 -0.050668886293228084 -0.052934503133893314 -0.05495858917065935 -0.056726424686963504 -0.05822329168987979 -0.05943462912717303 -0.06034629461595544 -0.06094488027058929 -0.061218000775849685 -0.06115447862932759 -0.06074439214497734 -0.05997908011682784 -0.05885125673836484 -0.05735551037779949 -0.05548931817175636 -0.053254600154018256 -0.05065936655748732 -0.04771914376556438 -0.04445782101566487 -0.04090829137786294 -0.03711286335628835 -0.03312384860582781 -0.029003629796756525 -0.02482468930275427 -0.020669159597964077 -0.016627835732805483 -0.012797853085214205 -0.009281128112817696 -0.006182375889508622 -0.0036073756643998645 -0.0016615677828372972 -0.00044100462135617186 0.0 -0.0005634585298039511 -0.0018868926780675178 -0.0038527805119333023 -0.0063524817998872225 -0.009288672319348417 -0.012561836775466764 -0.016072216512795643 -0.019730202179159842 -0.023462495610113245 -0.027210986542411435 -0.030928044779779115 -0.03457275110974025 -0.03810962341578445 -0.04150866166189681 -0.04474511321414146 -0.04779842800803383 -0.05065083338231545 -0.053286091872280644 -0.05568866680812959 -0.0578432387764101 -0.059734474386786154 -0.0613470068042556 -0.06266560569656823 -0.06367546473004197 -0.06436246686066469 -0.06471328095265991 -0.06471524721682372 -0.06435618610839994 -0.06362438408342182 -0.06250899699099402 -0.061001011790705946 -0.059094738755789834 -0.05678963016159776 -0.05409199648644047 -0.05101634033033492 -0.04758626144790547 -0.04383531181754168 -0.03980778294669281 -0.03555943709693998 -0.03115772431787625 -0.026681814451959746 -0.022222159760399707 -0.017878875384554183 -0.013759082013552576 -0.009974853263468544 -0.006641051108832495 -0.003872560271354794 -0.001781894905705381 -0.00046967951801131947 0.0 -0.0006027268830971914 -0.001974417108266082 -0.004034964771545765 -0.0066736701977737995 -0.009776153863656002 -0.013226988332599502 -0.016919037812094778 -0.020762093064531174 -0.024683464472150543 -0.0286233348050401 -0.032530464456518096 -0.03636069446311953 -0.04007709953537218 -0.04364978510879934 -0.04705458557287167 -0.05027123821063566 -0.0532818269029829 -0.05606977389294373 -0.058619207550608024 -0.060914508608666866 -0.06294002319959634 -0.06468002410657266 -0.06611890809898663 -0.06724145854669913 -0.06803292377776501 -0.06847877339145272 -0.06856424028663384 -0.06827401724991086 -0.06759245904561456 -0.06650449393259969 -0.06499708412876012 -0.06306109277443145 -0.06069309638671924 -0.057897076445380134 -0.05468557853233402 -0.05108103390413798 -0.047116897620934114 -0.04283921201334804 -0.038307240220216754 -0.033594218433001255 -0.028786994955043083 -0.0239858437796005 -0.019301724266674095 -0.014853616612924166 -0.01076558007636005 -0.007164338281748169 -0.004175307237626625 -0.0019193352179515343 -0.0005025233763809278 0.0 -0.0006206431409270816 -0.002057645800581101 -0.004234911275123631 -0.007028256533795029 -0.01030576144023852 -0.013941589168418003 -0.01782624258181526 -0.021869375991537626 -0.02599591704600767 -0.03014140332518213 -0.034250253731607054 -0.03827615539703587 -0.04218207516195071 -0.04593875820729127 -0.04952239923832992 -0.05291263313946473 -0.05609130446296508 -0.059041738706826746 -0.061748121946567355 -0.06419491349120963 -0.06636647994683514 -0.06824708238097738 -0.06982109179303632 -0.07107309723726464 -0.07198762023032022 -0.07254842525514653 -0.07273783163639233 -0.07253653693024273 -0.07192435020286993 -0.07088162269419607 -0.06939115131175191 -0.06743993292226896 -0.06502097011880681 -0.062134553085782696 -0.058789991656459796 -0.055007051447767866 -0.050818518893734316 -0.04627150743364292 -0.04142932437378547 -0.03637120798271012 -0.031193328689875326 -0.02600679120219958 -0.020935791460326612 -0.016112846537110974 -0.011676806392052307 -0.007768048436566662 -0.004524918028850368 -0.00207808118519711 -0.0005406683923192136 0.0 -0.0006302411339280357 -0.0021506128324441025 -0.004461210171247432 -0.007419210469672321 -0.010879883456466413 -0.014712537077920283 -0.01880641258536405 -0.023067977783651786 -0.02741620593840462 -0.03178072185068242 -0.03610262764932108 -0.04033503290918924 -0.04444151633379427 -0.048393216983096614 -0.052166183870169705 -0.055739805453454916 -0.059096002392785854 -0.06221852426079584 -0.06509209376351961 -0.06770163595904359 -0.07003191360438842 -0.07206758883108363 -0.07379335687273188 -0.07519370599417582 -0.07625210130046049 -0.07694992596266595 -0.07726579843897562 -0.07717592490995523 -0.07665538289953554 -0.07568005279015493 -0.0742282