# vtk DataFile Version 3.0
vtk output
ASCII
DATASET STRUCTURED_GRID
DIMENSIONS 51 51 1
POINTS 2601 float
0.0 0.0 0.0
0.02 0.0 0.0
0.04 0.0 0.0
0.06 0.0 0.0
0.08 0.0 0.0
0.1 0.0 0.0
0.12 0.0 0.0
0.14 0.0 0.0
0.16 0.0 0.0
0.18 0.0 0.0
0.2 0.0 0.0
0.22 0.0 0.0
0.24 0.0 0.0
0.26 0.0 0.0
0.28 0.0 0.0
0.3 0.0 0.0
0.32 0.0 0.0
0.34 0.0 0.0
0.36 0.0 0.0
0.38 0.0 0.0
0.4 0.0 0.0
0.42 0.0 0.0
0.44 0.0 0.0
0.46 0.0 0.0
0.48 0.0 0.0
0.5 0.0 0.0
0.52 0.0 0.0
0.54 0.0 0.0
0.56 0.0 0.0
0.58 0.0 0.0
0.6 0.0 0.0
0.62 0.0 0.0
0.64 0.0 0.0
0.66 0.0 0.0
0.68 0.0 0.0
0.7000000000000001 0.0 0.0
0.72 0.0 0.0
0.74 0.0 0.0
0.76 0.0 0.0
0.78 0.0 0.0
0.8 0.0 0.0
0.8200000000000001 0.0 0.0
0.84 0.0 0.0
0.86 0.0 0.0
0.88 0.0 0.0
0.9 0.0 0.0
0.92 0.0 0.0
0.9400000000000001 0.0 0.0
0.96 0.0 0.0
0.98 0.0 0.0
1.0 0.0 0.0
0.0 0.02 0.0
0.02 0.02 0.0
0.04 0.02 0.0
0.06 0.02 0.0
0.08 0.02 0.0
0.1 0.02 0.0
0.12 0.02 0.0
0.14 0.02 0.0
0.16 0.02 0.0
0.18 0.02 0.0
0.2 0.02 0.0
0.22 0.02 0.0
0.24 0.02 0.0
0.26 0.02 0.0
0.28 0.02 0.0
0.3 0.02 0.0
0.32 0.02 0.0
0.34 0.02 0.0
0.36 0.02 0.0
0.38 0.02 0.0
0.4 0.02 0.0
0.42 0.02 0.0
0.44 0.02 0.0
0.46 0.02 0.0
0.48 0.02 0.0
0.5 0.02 0.0
0.52 0.02 0.0
0.54 0.02 0.0
0.56 0.02 0.0
0.58 0.02 0.0
0.6 0.02 0.0
0.62 0.02 0.0
0.64 0.02 0.0
0.66 0.02 0.0
0.68 0.02 0.0
0.7000000000000001 0.02 0.0
0.72 0.02 0.0
0.74 0.02 0.0
0.76 0.02 0.0
0.78 0.02 0.0
0.8 0.02 0.0
0.8200000000000001 0.02 0.0
0.84 0.02 0.0
0.86 0.02 0.0
0.88 0.02 0.0
0.9 0.02 0.0
0.92 0.02 0.0
0.9400000000000001 0.02 0.0
0.96 0.02 0.0
0.98 0.02 0.0
1.0 0.02 0.0
0.0 0.04 0.0
0.02 0.04 0.0
0.04 0.04 0.0
0.06 0.04 0.0
0.08 0.04 0.0
0.1 0.04 0.0
0.12 0.04 0.0
0.14 0.04 0.0
0.16 0.04 0.0
0.18 0.04 0.0
0.2 0.04 0.0
0.22 0.04 0.0
0.24 0.04 0.0
0.26 0.04 0.0
0.28 0.04 0.0
0.3 0.04 0.0
0.32 0.04 0.0
0.34 0.04 0.0
0.36 0.04 0.0
0.38 0.04 0.0
0.4 0.04 0.0
0.42 0.04 0.0
0.44 0.04 0.0
0.46 0.04 0.0
0.48 0.04 0.0
0.5 0.04 0.0
0.52 0.04 0.0
0.54 0.04 0.0
0.56 0.04 0.0
0.58 0.04 0.0
0.6 0.04 0.0
0.62 0.04 0.0
0.64 0.04 0.0
0.66 0.04 0.0
0.68 0.04 0.0
0.7000000000000001 0.04 0.0
0.72 0.04 0.0
0.74 0.04 0.0
0.76 0.04 0.0
0.78 0.04 0.0
0.8 0.04 0.0
0.8200000000000001 0.04 0.0
0.84 0.04 0.0
0.86 0.04 0.0
0.88 0.04 0.0
0.9 0.04 0.0
0.92 0.04 0.0
0.9400000000000001 0.04 0.0
0.96 0.04 0.0
0.98 0.04 0.0
1.0 0.04 0.0
0.0 0.06 0.0
0.02 0.06 0.0
0.04 0.06 0.0
0.06 0.06 0.0
0.08 0.06 0.0
0.1 0.06 0.0
0.12 0.06 0.0
0.14 0.06 0.0
0.16 0.06 0.0
0.18 0.06 0.0
0.2 0.06 0.0
0.22 0.06 0.0
0.24 0.06 0.0
0.26 0.06 0.0
0.28 0.06 0.0
0.3 0.06 0.0
0.32 0.06 0.0
0.34 0.06 0.0
0.36 0.06 0.0
0.38 0.06 0.0
0.4 0.06 0.0
0.42 0.06 0.0
0.44 0.06 0.0
0.46 0.06 0.0
0.48 0.06 0.0
0.5 0.06 0.0
0.52 0.06 0.0
0.54 0.06 0.0
0.56 0.06 0.0
0.58 0.06 0.0
0.6 0.06 0.0
0.62 0.06 0.0
0.64 0.06 0.0
0.66 0.06 0.0
0.68 0.06 0.0
0.7000000000000001 0.06 0.0
0.72 0.06 0.0
0.74 0.06 0.0
0.76 0.06 0.0
0.78 0.06 0.0
0.8 0.06 0.0
0.8200000000000001 0.06 0.0
0.84 0.06 0.0
0.86 0.06 0.0
0.88 0.06 0.0
0.9 0.06 0.0
0.92 0.06 0.0
0.9400000000000001 0.06 0.0
0.96 0.06 0.0
0.98 0.06 0.0
1.0 0.06 0.0
0.0 0.08 0.0
0.02 0.08 0.0
0.04 0.08 0.0
0.06 0.08 0.0
0.08 0.08 0.0
0.1 0.08 0.0
0.12 0.08 0.0
0.14 0.08 0.0
0.16 0.08 0.0
0.18 0.08 0.0
0.2 0.08 0.0
0.22 0.08 0.0
0.24 0.08 0.0
0.26 0.08 0.0
0.28 0.08 0.0
0.3 0.08 0.0
0.32 0.08 0.0
0.34 0.08 0.0
0.36 0.08 0.0
0.38 0.08 0.0
0.4 0.08 0.0
0.42 0.08 0.0
0.44 0.08 0.0
0.46 0.08 0.0
0.48 0.08 0.0
0.5 0.08 0.0
0.52 0.08 0.0
0.54 0.08 0.0
0.56 0.08 0.0
0.58 0.08 0.0
0.6 0.08 0.0
0.62 0.08 0.0
0.64 0.08 0.0
0.66 0.08 0.0
0.68 0.08 0.0
0.7000000000000001 0.08 0.0
0.72 0.08 0.0
0.74 0.08 0.0
0.76 0.08 0.0
0.78 0.08 0.0
0.8 0.08 0.0
0.8200000000000001 0.08 0.0
0.84 0.08 0.0
0.86 0.08 0.0
0.88 0.08 0.0
0.9 0.08 0.0
0.92 0.08 0.0
0.9400000000000001 0.08 0.0
0.96 0.08 0.0
0.98 0.08 0.0
1.0 0.08 0.0
0.0 0.1 0.0
0.02 0.1 0.0
0.04 0.1 0.0
0.06 0.1 0.0
0.08 0.1 0.0
0.1 0.1 0.0
0.12 0.1 0.0
0.14 0.1 0.0
0.16 0.1 0.0
0.18 0.1 0.0
0.2 0.1 0.0
0.22 0.1 0.0
0.24 0.1 0.0
0.26 0.1 0.0
0.28 0.1 0.0
0.3 0.1 0.0
0.32 0.1 0.0
0.34 0.1 0.0
0.36 0.1 0.0
0.38 0.1 0.0
0.4 0.1 0.0
0.42 0.1 0.0
0.44 0.1 0.0
0.46 0.1 0.0
0.48 0.1 0.0
0.5 0.1 0.0
0.52 0.1 0.0
0.54 0.1 0.0
0.56 0.1 0.0
0.58 0.1 0.0
0.6 0.1 0.0
0.62 0.1 0.0
0.64 0.1 0.0
0.66 0.1 0.0
0.68 0.1 0.0
0.7000000000000001 0.1 0.0
0.72 0.1 0.0
0.74 0.1 0.0
0.76 0.1 0.0
0.78 0.1 0.0
0.8 0.1 0.0
0.8200000000000001 0.1 0.0
0.84 0.1 0.0
0.86 0.1 0.0
0.88 0.1 0.0
0.9 0.1 0.0
0.92 0.1 0.0
0.9400000000000001 0.1 0.0
0.96 0.1 0.0
0.98 0.1 0.0
1.0 0.1 0.0
0.0 0.12 0.0
0.02 0.12 0.0
0.04 0.12 0.0
0.06 0.12 0.0
0.08 0.12 0.0
0.1 0.12 0.0
0.12 0.12 0.0
0.14 0.12 0.0
0.16 0.12 0.0
0.18 0.12 0.0
0.2 0.12 0.0
0.22 0.12 0.0
0.24 0.12 0.0
0.26 0.12 0.0
0.28 0.12 0.0
0.3 0.12 0.0
0.32 0.12 0.0
0.34 0.12 0.0
0.36 0.12 0.0
0.38 0.12 0.0
0.4 0.12 0.0
0.42 0.12 0.0
0.44 0.12 0.0
0.46 0.12 0.0
0.48 0.12 0.0
0.5 0.12 0.0
0.52 0.12 0.0
0.54 0.12 0.0
0.56 0.12 0.0
0.58 0.12 0.0
0.6 0.12 0.0
0.62 0.12 0.0
0.64 0.12 0.0
0.66 0.12 0.0
0.68 0.12 0.0
0.7000000000000001 0.12 0.0
0.72 0.12 0.0
0.74 0.12 0.0
0.76 0.12 0.0
0.78 0.12 0.0
0.8 0.12 0.0
0.8200000000000001 0.12 0.0
0.84 0.12 0.0
0.86 0.12 0.0
0.88 0.12 0.0
0.9 0.12 0.0
0.92 0.12 0.0
0.9400000000000001 0.12 0.0
0.96 0.12 0.0
0.98 0.12 0.0
1.0 0.12 0.0
0.0 0.14 0.0
0.02 0.14 0.0
0.04 0.14 0.0
0.06 0.14 0.0
0.08 0.14 0.0
0.1 0.14 0.0
0.12 0.14 0.0
0.14 0.14 0.0
0.16 0.14 0.0
0.18 0.14 0.0
0.2 0.14 0.0
0.22 0.14 0.0
0.24 0.14 0.0
0.26 0.14 0.0
0.28 0.14 0.0
0.3 0.14 0.0
0.32 0.14 0.0
0.34 0.14 0.0
0.36 0.14 0.0
0.38 0.14 0.0
0.4 0.14 0.0
0.42 0.14 0.0
0.44 0.14 0.0
0.46 0.14 0.0
0.48 0.14 0.0
0.5 0.14 0.0
0.52 0.14 0.0
0.54 0.14 0.0
0.56 0.14 0.0
0.58 0.14 0.0
0.6 0.14 0.0
0.62 0.14 0.0
0.64 0.14 0.0
0.66 0.14 0.0
0.68 0.14 0.0
0.7000000000000001 0.14 0.0
0.72 0.14 0.0
0.74 0.14 0.0
0.76 0.14 0.0
0.78 0.14 0.0
0.8 0.14 0.0
0.8200000000000001 0.14 0.0
0.84 0.14 0.0
0.86 0.14 0.0
0.88 0.14 0.0
0.9 0.14 0.0
0.92 0.14 0.0
0.9400000000000001 0.14 0.0
0.96 0.14 0.0
0.98 0.14 0.0
1.0 0.14 0.0
0.0 0.16 0.0
0.02 0.16 0.0
0.04 0.16 0.0
0.06 0.16 0.0
0.08 0.16 0.0
0.1 0.16 0.0
0.12 0.16 0.0
0.14 0.16 0.0
0.16 0.16 0.0
0.18 0.16 0.0
0.2 0.16 0.0
0.22 0.16 0.0
0.24 0.16 0.0
0.26 0.16 0.0
0.28 0.16 0.0
0.3 0.16 0.0
0.32 0.16 0.0
0.34 0.16 0.0
0.36 0.16 0.0
0.38 0.16 0.0
0.4 0.16 0.0
0.42 0.16 0.0
0.44 0.16 0.0
0.46 0.16 0.0
0.48 0.16 0.0
0.5 0.16 0.0
0.52 0.16 0.0
0.54 0.16 0.0
0.56 0.16 0.0
0.58 0.16 0.0
0.6 0.16 0.0
0.62 0.16 0.0
0.64 0.16 0.0
0.66 0.16 0.0
0.68 0.16 0.0
0.7000000000000001 0.16 0.0
0.72 0.16 0.0
0.74 0.16 0.0
0.76 0.16 0.0
0.78 0.16 0.0
0.8 0.16 0.0
0.8200000000000001 0.16 0.0
0.84 0.16 0.0
0.86 0.16 0.0
0.88 0.16 0.0
0.9 0.16 0.0
0.92 0.16 0.0
0.9400000000000001 0.16 0.0
0.96 0.16 0.0
0.98 0.16 0.0
1.0 0.16 0.0
0.0 0.18 0.0
0.02 0.18 0.0
0.04 0.18 0.0
0.06 0.18 0.0
0.08 0.18 0.0
0.1 0.18 0.0
0.12 0.18 0.0
0.14 0.18 0.0
0.16 0.18 0.0
0.18 0.18 0.0
0.2 0.18 0.0
0.22 0.18 0.0
0.24 0.18 0.0
0.26 0.18 0.0
0.28 0.18 0.0
0.3 0.18 0.0
0.32 0.18 0.0
0.34 0.18 0.0
0.36 0.18 0.0
0.38 0.18 0.0
0.4 0.18 0.0
0.42 0.18 0.0
0.44 0.18 0.0
0.46 0.18 0.0
0.48 0.18 0.0
0.5 0.18 0.0
0.52 0.18 0.0
0.54 0.18 0.0
0.56 0.18 0.0
0.58 0.18 0.0
0.6 0.18 0.0
0.62 0.18 0.0
0.64 0.18 0.0
0.66 0.18 0.0
0.68 0.18 0.0
0.7000000000000001 0.18 0.0
0.72 0.18 0.0
0.74 0.18 0.0
0.76 0.18 0.0
0.78 0.18 0.0
0.8 0.18 0.0
0.8200000000000001 0.18 0.0
0.84 0.18 0.0
0.86 0.18 0.0
0.88 0.18 0.0
0.9 0.18 0.0
0.92 0.18 0.0
0.9400000000000001 0.18 0.0
0.96 0.18 0.0
0.98 0.18 0.0
1.0 0.18 0.0
0.0 0.2 0.0
0.02 0.2 0.0
0.04 0.2 0.0
0.06 0.2 0.0
0.08 0.2 0.0
0.1 0.2 0.0
0.12 0.2 0.0
0.14 0.2 0.0
0.16 0.2 0.0
0.18 0.2 0.0
0.2 0.2 0.0
0.22 0.2 0.0
0.24 0.2 0.0
0.26 0.2 0.0
0.28 0.2 0.0
0.3 0.2 0.0
0.32 0.2 0.0
0.34 0.2 0.0
0.36 0.2 0.0
0.38 0.2 0.0
0.4 0.2 0.0
0.42 0.2 0.0
0.44 0.2 0.0
0.46 0.2 0.0
0.48 0.2 0.0
0.5 0.2 0.0
0.52 0.2 0.0
0.54 0.2 0.0
0.56 0.2 0.0
0.58 0.2 0.0
0.6 0.2 0.0
0.62 0.2 0.0
0.64 0.2 0.0
0.66 0.2 0.0
0.68 0.2 0.0
0.7000000000000001 0.2 0.0
0.72 0.2 0.0
0.74 0.2 0.0
0.76 0.2 0.0
0.78 0.2 0.0
0.8 0.2 0.0
0.8200000000000001 0.2 0.0
0.84 0.2 0.0
0.86 0.2 0.0
0.88 0.2 0.0
0.9 0.2 0.0
0.92 0.2 0.0
0.9400000000000001 0.2 0.0
0.96 0.2 0.0
0.98 0.2 0.0
1.0 0.2 0.0
0.0 0.22 0.0
0.02 0.22 0.0
0.04 0.22 0.0
0.06 0.22 0.0
0.08 0.22 0.0
0.1 0.22 0.0
0.12 0.22 0.0
0.14 0.22 0.0
0.16 0.22 0.0
0.18 0.22 0.0
0.2 0.22 0.0
0.22 0.22 0.0
0.24 0.22 0.0
0.26 0.22 0.0
0.28 0.22 0.0
0.3 0.22 0.0
0.32 0.22 0.0
0.34 0.22 0.0
0.36 0.22 0.0
0.38 0.22 0.0
0.4 0.22 0.0
0.42 0.22 0.0
0.44 0.22 0.0
0.46 0.22 0.0
0.48 0.22 0.0
0.5 0.22 0.0
0.52 0.22 0.0
0.54 0.22 0.0
0.56 0.22 0.0
0.58 0.22 0.0
0.6 0.22 0.0
0.62 0.22 0.0
0.64 0.22 0.0
0.66 0.22 0.0
0.68 0.22 0.0
0.7000000000000001 0.22 0.0
0.72 0.22 0.0
0.74 0.22 0.0
0.76 0.22 0.0
0.78 0.22 0.0
0.8 0.22 0.0
0.8200000000000001 0.22 0.0
0.84 0.22 0.0
0.86 0.22 0.0
0.88 0.22 0.0
0.9 0.22 0.0
0.92 0.22 0.0
0.9400000000000001 0.22 0.0
0.96 0.22 0.0
0.98 0.22 0.0
1.0 0.22 0.0
0.0 0.24 0.0
0.02 0.24 0.0
0.04 0.24 0.0
0.06 0.24 0.0
0.08 0.24 0.0
0.1 0.24 0.0
0.12 0.24 0.0
0.14 0.24 0.0
0.16 0.24 0.0
0.18 0.24 0.0
0.2 0.24 0.0
0.22 0.24 0.0
0.24 0.24 0.0
0.26 0.24 0.0
0.28 0.24 0.0
0.3 0.24 0.0
0.32 0.24 0.0
0.34 0.24 0.0
0.36 0.24 0.0
0.38 0.24 0.0
0.4 0.24 0.0
0.42 0.24 0.0
0.44 0.24 0.0
0.46 0.24 0.0
0.48 0.24 0.0
0.5 0.24 0.0
0.52 0.24 0.0
0.54 0.24 0.0
0.56 0.24 0.0
0.58 0.24 0.0
0.6 0.24 0.0
0.62 0.24 0.0
0.64 0.24 0.0
0.66 0.24 0.0
0.68 0.24 0.0
0.7000000000000001 0.24 0.0
0.72 0.24 0.0
0.74 0.24 0.0
0.76 0.24 0.0
0.78 0.24 0.0
0.8 0.24 0.0
0.8200000000000001 0.24 0.0
0.84 0.24 0.0
0.86 0.24 0.0
0.88 0.24 0.0
0.9 0.24 0.0
0.92 0.24 0.0
0.9400000000000001 0.24 0.0
0.96 0.24 0.0
0.98 0.24 0.0
1.0 0.24 0.0
0.0 0.26 0.0
0.02 0.26 0.0
0.04 0.26 0.0
0.06 0.26 0.0
0.08 0.26 0.0
0.1 0.26 0.0
0.12 0.26 0.0
0.14 0.26 0.0
0.16 0.26 0.0
0.18 0.26 0.0
0.2 0.26 0.0
0.22 0.26 0.0
0.24 0.26 0.0
0.26 0.26 0.0
0.28 0.26 0.0
0.3 0.26 0.0
0.32 0.26 0.0
0.34 0.26 0.0
0.36 0.26 0.0
0.38 0.26 0.0
0.4 0.26 0.0
0.42 0.26 0.0
0.44 0.26 0.0
0.46 0.26 0.0
0.48 0.26 0.0
[...]
CELL_DATA 2500
SCALARS u float 1
LOOKUP_TABLE u_cell_table
0.00027421524737197855 0.0006337995297908439 0.0007410772254490571 0.0005601623904835395 0.00018257481109418147 -0.00028841135305837694 -0.0007759626007914411 -0.0012349432791142283 -0.0016476881245696751 -0.0020160049813475753 -0.0023518806674998017 -0.0026699418407080478 -0.002982561714742164 -0.0032976175835294688 -0.0036178687468421218 -0.003941616158607765 -0.004263690069071372 -0.004576890292537697 -0.004873017235472088 -0.005144016264413056 -0.0053823704135950645 -0.005581647624148141 -0.005736255864353344 -0.005841673204841794 -0.005894030486938952 -0.005890529630694488 -0.005829177272329185 -0.005709385205060835 -0.005531592005998192 -0.005297754211174918 -0.005010811569854799 -0.00467526153061925 -0.004296716791014724 -0.0038825400507256722 -0.003441210425659499 -0.0029826461668332653 -0.0025172825802494796 -0.0020562611087149123 -0.0016105553006964949 -0.0011911758069704788 -0.000808252997566348 -0.0004709016683051505 -0.00018585057419642965 4.368902070592498e-05 0.0002214270928135835 0.0003646003175593889 0.0005207884715835232 0.0008039749774840861 0.0014576808177668515 0.0 0.00042114598110081007 0.00043468719186438566 0.0002483881044753804 -0.00017130274871437568 -0.0008006934693041314 -0.0015803813921011762 -0.0024563894549663326 -0.0033903238809198082 -0.0043590237817604585 -0.0053497244298348475 -0.006355370445427841 -0.007370420629489533 -0.008388792518313887 -0.009402290939554839 -0.01040083657319131 -0.01137208634620715 -0.012302651939100491 -0.013177867048866882 -0.013983345649340942 -0.014704401330716217 -0.015327705864629915 -0.01584017074307639 -0.016230688301044797 -0.01648856736942693 -0.01660564266207398 -0.016574592265493238 -0.01639157651300724 -0.016054338494061182 -0.01556499244797007 -0.014927630128002963 -0.014151129820618169 -0.013246503313458311 -0.012229817436926301 -0.011119275424029238 -0.009937821233640617 -0.00870970797286565 -0.007462611738736883 -0.006223997637466437 -0.005022953350736945 -0.003886601352406289 -0.0028414462061981806 -0.001909602381540082 -0.0011091945966378032 -0.00045017647603889845 6.64870463513657e-05 0.00045229650146129353 0.0007259182625593978 0.0008847448675385932 0.0007991834206465904 0.0 0.00020573517303079485 -0.00013286462811763793 -0.0006697333183641859 -0.001350490420329043 -0.002186681536614001 -0.0031847032125169542 -0.004339415300466753 -0.005638923659786508 -0.007064846948871533 -0.00859334509825414 -0.010196631225367004 -0.011845594643195187 -0.013511147521527867 -0.01516597478784481 -0.016784322452563515 -0.018342877931807694 -0.019819502988043514 -0.021194033542512855 -0.0224465974884706 -0.023558975863070694 -0.024512824078814527 -0.025291767351773967 -0.025879447711521005 -0.026262327968097774 -0.026427562491482967 -0.026366520456710788 -0.0260723753264663 -0.025544019667519832 -0.024783065453700633 -0.023797860074565403 -0.022599965972067447 -0.021208277497871502 -0.019645060524783264 -0.01793981677064714 -0.016124686808115875 -0.014237754013100828 -0.012318008194978388 -0.010408167914757311 -0.008549537213569835 -0.00678427358786838 -0.0051502025406912795 -0.003682354333621557 -0.0024079807282865228 -0.0013477969321264395 -0.0005126708575077328 9.223171999354512e-05 0.00046153044041479885 0.00057225807712771 0.0003837653181078979 0.0 -0.00035127100171797706 -0.0007957668937234383 -0.0014545807168291271 -0.0022945566556245058 -0.003341029957816243 -0.004623391949834465 -0.006147025970290539 -0.00789401425247803 -0.009829955806910911 -0.011910463227610473 -0.014088061306674692 -0.01631635088921239 -0.018553440378228647 -0.020761917760723437 -0.02290965413524871 -0.024967573339422365 -0.02691006403894481 -0.028712179785796037 -0.03035100120969911 -0.03180295611586988 -0.03304650595261896 -0.034059419821573456 -0.034822564300402224 -0.03531685680932925 -0.03552803559901127 -0.03544316404306773 -0.03505611211165006 -0.03436332659584425 -0.033369644921979275 -0.032083299320645874 -0.030521968414340815 -0.028707170909657555 -0.026670228765126036 -0.024445902499912877 -0.022077805619883352 -0.01961141062560281 -0.01709884400695079 -0.014591648676179673 -0.012144882228067665 -0.009809868315577102 -0.007637453830106093 -0.00567112612512808 -0.0039497455087232495 -0.0025020398252824073 -0.001350005265652084 -0.0005066268550996563 1.926251579306919e-05 0.00022857375773485463 0.00016008233755240508 0.0 -0.0007554547452148291 -0.0011964159205624047 -0.0019062526657619874 -0.002933822721652613 -0.004290965041596179 -0.005980707122420566 -0.00798000233789629 -0.01024310553224724 -0.012711734469293596 -0.015324962892828505 -0.018024892781604216 -0.020760561293425194 -0.02348753291907997 -0.026168150995980924 -0.028768519436114935 -0.03125855522524904 -0.033608614831744404 -0.0357909124933917 -0.03777642956772994 -0.03953802612529031 -0.04104731197798306 -0.04227908502324911 -0.043207667994027935 -0.043812470066386874 -0.04407366902656527 -0.043978774553229044 -0.04351747685847643 -0.04268884684637834 -0.04149522808405806 -0.03994986826174199 -0.038070029791931546 -0.035884788527230795 -0.03342730328520166 -0.03074221035061814 -0.027877069969721648 -0.0248890957797901 -0.021836151396412422 -0.018782689165450082 -0.01579062915500947 -0.012924321597435024 -0.010241705876872263 -0.007798419406292454 -0.005639998596080975 -0.0038056455970712742 -0.002322273776483818 -0.001207718734239447 -0.000464423435702694 -7.35584643234422e-05 2.9952073557007697e-05 0.0 -0.0006610633837740663 -0.0011909364537360757 -0.002107459323144143 -0.0034798996100856177 -0.00528319259116823 -0.007469581255107604 -0.009978332330831018 -0.01274085882497535 -0.01568931803280677 -0.01876165078433329 -0.021904445330016866 -0.025071265121870145 -0.028222083939725136 -0.03131967607508438 -0.03432976325559892 -0.0372175789062907 -0.03994979154331487 -0.04249127591635304 -0.04480880832637766 -0.046867527693160375 -0.048636029186695746 -0.050081951464053295 -0.05117829972876294 -0.051898086449477146 -0.05222195794847437 -0.05213188089370899 -0.05161982604378884 -0.05068034980085681 -0.04932001120223528 -0.04754896882744435 -0.0453908805739266 -0.042873581765287605 -0.040038855526954964 -0.03693213306728675 -0.033611643824325785 -0.0301374473382244 -0.026579717773977905 -0.023007503570379916 -0.019495885574227927 -0.01611486514730929 -0.012935346079515946 -0.010018830738361434 -0.007422437051250255 -0.005190099696150011 -0.0033565731983167158 -0.0019396639591734142 -0.0009407934831111527 -0.00033389103929610284 -5.799171604489988e-05 0.0 -0.00025343063651562104 -0.001043437015147662 -0.0023592389507684055 -0.0041911570239803264 -0.006476813517228879 -0.009134850019232 -0.012087343105872993 -0.015265314747212225 -0.018609132924381523 -0.022068398382309364 -0.025598356873887583 -0.02915838576292216 -0.03270823491015086 -0.0362087516904488 -0.03961906050974448 -0.042899315087216165 -0.04600770307664386 -0.048904651374343494 -0.051548970445679194 -0.05390334000080685 -0.055929194792080625 -0.05759353052593794 -0.058862553039924104 -0.059710082951024424 -0.06011012482630623 -0.06004680548502517 -0.05950574405048296 -0.058485127935921796 -0.05698589339362763 -0.05502363419189059 -0.05261775531620652 -0.04980363812493785 -0.04662070200681109 -0.043124120522963404 -0.03937199167201918 -0.03543618984661767 -0.03138905350562908 -0.027313015617869328 -0.023287218853072108 -0.01939567701517449 -0.015714457520590516 -0.01231845702018939 -0.009269835281488557 -0.006623480778274922 -0.0044170927913449246 -0.00267469704726723 -0.0013975497316557467 -0.0005645183416722526 -0.0001257830396285467 0.0 -8.516699553502661e-06 -0.0011257659685359595 -0.0028694597996998163 -0.005118748141035212 -0.0077932093937761095 -0.010812782125427649 -0.014109518952706002 -0.01762819910633716 -0.021322517792814168 -0.025149201214532624 -0.02906586364374677 -0.03302764860470113 -0.03698897438954355 -0.040901714307256545 -0.04471892127086525 -0.04839213763219787 -0.05187595662913422 -0.055123731448871414 -0.0580932228255791 -0.06074069769155313 -0.06302807445865154 -0.06491554960995982 -0.06637067218253531 -0.06735973224467759 -0.06785886775088011 -0.06784415771480033 -0.06730436429154027 -0.06622963446573764 -0.0646254668300913 -0.06250021513736452 -0.05987976773068744 -0.056793881641677105 -0.05329072729341382 -0.04942214049826571 -0.045257401215204926 -0.04086778411051214 -0.03633907380550998 -0.031755837934021355 -0.02721223982410167 -0.02279657600550883 -0.018600312882577692 -0.014703672741630286 -0.011182909383012567 -0.008097675518103751 -0.005496656580497333 -0.003407091272437119 -0.0018385854739190752 -0.0007757871218602926 -0.00018352173395549346 0.0 -0.00018984639967731465 -0.0015346443495116958 -0.0035513886217360853 -0.006068837397515648 -0.009005717289754448 -0.012300366196461082 -0.01589935514779771 -0.019755346948743823 -0.023821285852384737 -0.028048345391743765 -0.03238352517408699 -0.036772607540544226 -0.041159362003213795 -0.04548993056954155 -0.04971021813781467 -0.053770393982812414 -0.057620000925026914 -0.06121344088359199 -0.06450329366723294 -0.06744762477668552 -0.07000171938214438 -0.07212768597511492 -0.0737847596361661 -0.07494139181795365 -0.07556410849182245 -0.07563176619510284 -0.07512282098373592 -0.07403125266847528 -0.07235240199198188 -0.07010009037957365 -0.06729120991910494 -0.06396317271146983 -0.06015728657225508 -0.05593567064821413 -0.051363734479776164 -0.04652588355254459 -0.041507509017036356 -0.03640886434543017 -0.031327006609576394 -0.026367480511573324 -0.021627010781560502 -0.017203009863555115 -0.013177810495788462 -0.009626254266043896 -0.006602531695525262 -0.004146148464851769 -0.0022722838554099342 -0.0009773180948577966 -0.0002358100761990934 0.0 -0.0006116031896255762 -0.0020250693796128494 -0.00413895028542822 -0.006815960647731833 -0.009973812188340633 -0.013552546800016614 -0.017494837050288686 -0.021740658820369192 -0.0262275569657611 -0.0308898006056847 -0.0356623220399255 -0.040480514216902554 -0.04528461947378975 -0.05001667271640099 -0.05462439930645532 -0.05905549785868944 -0.06326271016626733 -0.06719641441422466 -0.07081202487147906 -0.07406101271128317 -0.07690098920918251 -0.07928504229501473 -0.08117466469183693 -0.08252738167816034 -0.08331234846289268 -0.0834961680128982 -0.08306066166843441 -0.08198698495392215 -0.08027508858261898 -0.07792646218214168 -0.07496450286141369 -0.07141598769356933 -0.06733129849622194 -0.06276486340452049 -0.05779435973401911 -0.05250048990311481 -0.04698433415847868 -0.04134682781887028 -0.03570357722246338 -0.0301646436330893 -0.024846714208929414 -0.019854118316244153 -0.015288442599610205 -0.0112320028624514 -0.007755654507770365 -0.004905919066405595 -0.0027116415187990652 -0.001176460613501858 -0.00028624624002705713 0.0 -0.0008702043834689469 -0.0022915857908603313 -0.00447205682947756 -0.007331901139893774 -0.010772785713734745 -0.014709201756714859 -0.01905762533923414 -0.023734740259901205 -0.028657952068302364 -0.033749881244218564 -0.03893796532113034 -0.04415795508011684 -0.04934982778475485 -0.0544605749101675 -0.059437555215292905 -0.06423300472541965 -0.06879609428688224 -0.07308039682312881 -0.07703445686385023 -0.08061229094141976 -0.08376194323863137 -0.08643905767160392 -0.08859332405052985 -0.09018514002151898 -0.09116997669033014 -0.09151776865897783 -0.09119530592288888 -0.09018783800808289 -0.08847989631148064 -0.08607843418731692 -0.08299236609593025 -0.07925612253137125 -0.07490810593022887 -0.07001357302256977 -0.06464233786509957 -0.05888992282566574 -0.05285478750241934 -0.046656772612280906 -0.04041421051335831 -0.03425914763324976 -0.028315242536884062 -0.02270982048248949 -0.017553619404377004 -0.012950382371148823 -0.008980204554401646 -0.005707443065973698 -0.003168994114729229 -0.0013816242056521107 -0.000336860391010183 0.0 -0.0007718671611190813 -0.002281128885384334 -0.00464650135394828 -0.0077930756494907685 -0.011596953499461691 -0.01593669407518512 -0.02070169177474146 -0.02579024925932744 -0.031112397990422452 -0.03658837063020165 -0.042150421731346095 -0.04773729639372518 -0.05329566603264828 -0.05877270124434821 -0.06412009565300204 -0.06928589462315173 -0.07422204677545213 -0.07887476276484719 -0.08319532680448517 -0.08712803379347747 -0.09062418114809684 -0.09362738610303412 -0.09609099394126527 -0.09796097944527328 -0.09919666295891363 -0.09975138097196297 -0.09959599590795365 -0.09869773608869821 -0.09704586368999857 -0.09462919265396807 -0.09146286128411274 -0.08756480440395975 -0.08298236436873802 -0.07776803984253383 -0.07200467294644922 -0.06578067030315461 -0.0592124977414563 -0.0524195302925238 -0.045542862311656745 -0.03872032644529057 -0.032101459472477875 -0.025823745871774665 -0.02002406211595272 -0.014817894682722571 -0.010308572008617624 -0.006571094897789684 -0.0036600078032150945 -0.0015994500803632758 -0.0003904788937209337 0.0 -0.0005052152425926513 -0.002218650488403112 -0.004889648760607821 -0.008383405848907573 -0.01255437616703418 -0.01726271308854583 -0.022386467726663146 -0.027823426236790808 -0.03348679351861935 -0.03930475120770384 -0.045213580083000256 -0.051157925469326765 -0.05708302341545534 -0.06293848928298465 -0.06867029797364389 -0.07422840893583707 -0.07955707800895222 -0.08460575355766362 -0.08931649904200999 -0.09363811683809499 -0.0975104204478541 -0.10088204228400934 -0.10369190517247483 -0.10589091024181393 -0.10742092537250922 -0.10823990810048156 -0.10829876597776589 -0.10756923153846204 -0.10601925689662157 -0.10364272555454977 -0.10043389103637226 -0.09641758808988422 -0.09162308302874721 -0.08611336558651421 -0.07995860017319358 -0.0732629558632349 -0.06613764958769146 -0.058723912600766905 -0.05116571703284796 -0.04362812976389062 -0.036270535890698494 -0.029260490382142484 -0.022748771262494423 -0.016879928191278225 -0.011771489039527225 -0.007522432678262109 -0.004198243364721355 -0.0018384523352224192 -0.00044868026572628247 0.0 -0.00040773408949730614 -0.0023494403662414672 -0.005318799933613695 -0.009110247334867814 -0.01357081707086987 -0.018564398473714976 -0.02397649821198141 -0.029711374282301306 -0.03568990311478905 -0.04184188781204816 -0.048105800603407085 -0.054421324843063085 -0.06073319538541725 -0.06698362183904204 -0.07311986400907593 -0.07908452964841169 -0.0848262061877208 -0.09028639510121846 -0.09541343727184463 -0.10014586338653172 -0.10443027757726972 -0.10820150919349475 -0.11140490905094615 -0.11397373850760745 -0.11585557500805485 -0.1169872573088918 -0.11732461939076123 -0.11681568080533326 -0.11543289051905971 -0.11314540813475453 -0.10995261384015598 -0.10585601414699296 -0.10089249325728067 -0.09510613258864992 -0.08857948239407813 -0.08140519426287558 -0.07371356872598378 -0.0656437494282236 -0.05736613675538635 -0.049053305447766406 -0.040896913964576315 -0.033079337762918166 -0.02578569472356817 -0.019178400023226683 -0.013406240666655404 -0.008584128466162647 -0.004800681408182732 -0.0021051664499404993 -0.0005142865803899628 0.0 -0.0006067817045559364 -0.002689283604012595 -0.005834908023394645 -0.009817559450823734 -0.014484034724669345 -0.019709622236856687 -0.025385845380344788 -0.03141989127045804 -0.03772835696305196 -0.04423742012809051 -0.05087634108774896 -0.057581523530910124 -0.06428945823206257 -0.07094393910281785 -0.07748623202580077 -0.08386500773112054 -0.09002277684038287 -0.09590928689141169 -0.10146414473528274 -0.10663451421576295 -0.11135416864396863 -0.11556605697150034 -0.11919824037621955 -0.1221912144656101 -0.12447106249938397 -0.12598068791338798 -0.12665079124471523 -0.12643416879058073 -0.1252756663015005 -0.12314852198904581 -0.12002418054699404 -0.11590914325354403 -0.11081512308586969 -0.10479461702107642 -0.0979113748057707 -0.0902727094046019 -0.08199983710588914 -0.0732550087316161 -0.06421118409116136 -0.055072743256279214 -0.046044795120015594 -0.037347503060025995 -0.029186485186666423 -0.02176249425941111 -0.015245881021386479 -0.00978380182958566 -0.005481412249881502 -0.002408451583074098 -0.0005887230336944054 0.0 -0.0009125394950093583 -0.0030325904292120964 -0.006246921206663974 -0.010360914033450137 -0.015218036233582014 -0.02068858947922516 -0.026658027884920527 -0.03302150725687841 -0.03968598617924682 -0.04656526319726645 -0.053584092724016597 -0.060671436030741197 -0.06776686575531556 -0.07481042140595992 -0.08175142504500232 -0.0885344363919717 -0.09511184693445028 -0.10142605071361636 -0.10742677879403015 -0.11304938923502782 -0.11823741472378606 -0.12291726422451851 -0.12702606815569656 -0.13048320504471592 -0.13322265961549812 -0.13516187294113705 -0.13623762148835425 -0.13637349179035438 -0.13551847620335633 -0.13361446241769906 -0.13063615354214644 -0.12655934909270655 -0.12140040348828471 -0.1151855285126411 -0.10798773996664081 -0.09989675593632744 -0.0910512329860991 -0.08160827752906255 -0.07176887236016652 -0.06174624038817671 -0.05178353976852746 -0.042121584743483494 -0.03300961284160707 -0.02467490563006652 -0.01732945561998874 -0.01114495905912212 -0.006258267667024735 -0.002754923347226232 -0.0006749141754257629 0.0 -0.0010449398704411301 -0.003186137227506906 -0.0064752898309589175 -0.010752689256282527 -0.015846864575796395 -0.021607559096770517 -0.02790010782726481 -0.03460619221927936 -0.04162002790735297 -0.04885214217260708 -0.056222440355582846 -0.06366527200197769 -0.0711188648893951 -0.07853279500485887 -0.08585362269104599 -0.09303651874893915 -0.10002731987063279 -0.1067793799261396 -0.113231513164493 -0.11933028284479551 -0.12500375241547468 -0.1301894417874767 -0.13480442353734262 -0.13877840916427991 -0.14202065552895557 -0.1444570022737268 -0.1459948181051756 -0.1465632417099618 -0.14607807780669554 -0.1444841522339597 -0.1417213884870983 -0.13776752260795225 -0.1326059471384794 -0.12626682709120646 -0.11879657336954437 -0.11029514192922477 -0.10088610163153643 -0.0907475147260834 -0.08008089626731534 -0.0691335202661493 -0.05816541044170872 -0.04746260631942181 -0.03730330389049083 -0.027964287409808993 -0.019690019170963642 -0.012696071269782769 -0.007145689510907574 -0.0031538509812410504 -0.0007742677344276042 0.0 -0.000930540274748077 -0.0031639468363190222 -0.0066196065674817 -0.011127782911918096 -0.016499511494342818 -0.022560878786930215 -0.029163232153002646 -0.036178617519979465 -0.04350158197113229 -0.05104140728840669 -0.05872543145021332 -0.06648814718260476 -0.07427740788519574 -0.08204013906303072 -0.08973298893897579 -0.09730462481048552 -0.10471197434610162 -0.11189823435976888 -0.11881467547187553 -0.12539377685653033 -0.13157687938336426 -0.137283078569482 -0.142442610946534 -0.14696207993094051 -0.15076229640158406 -0.1537408134200798 -0.15581327636827008 -0.15687550818062795 -0.15684763033398474 -0.15563756062955264 -0.15318626079554226 -0.14943360990131332 -0.14436293005165618 -0.1379696125172593 -0.13030295117832366 -0.12143686826508868 -0.11150646448029433 -0.10067874837899997 -0.08918076673499059 -0.07726798278760487 -0.0652419073684653 -0.053415305409484914 -0.04211973412469183 -0.03167006920478458 -0.02236588589429045 -0.014460586988496945 -0.008162052096915121 -0.0036120732846990486 -0.0008898971637989752 0.0 -0.0007535523739183321 -0.0031484251971806952 -0.006833269720874087 -0.011590044864972657 -0.01721678899342347 -0.02353378269554517 -0.030389059370781943 -0.037659556073854385 -0.04524160686041096 -0.05305224956564831 -0.06101842267723614 -0.06908235364131649 -0.07718794666603632 -0.08529057255893738 -0.09333991462567669 -0.1012954009511761 -0.10910460143132522 -0.11672430068151125 -0.12409337809609534 -0.1311597666474389 -0.13784841543218546 -0.14409452648573234 -0.14980742090220567 -0.15490887450156454 -0.15929354390398684 -0.1628710314665766 -0.16552509597675139 -0.16715891982154477 -0.16765568785531576 -0.16692566884030927 -0.1648695389083455 -0.16142541915709677 -0.15653587134359107 -0.150193322475699 -0.14241085019682345 -0.13326390947844283 -0.12286316800891278 -0.11138911415154587 -0.09906359381821969 -0.0861737187060632