# vtk DataFile Version 3.0
vtk output
ASCII
DATASET STRUCTURED_GRID
DIMENSIONS 51 51 1
POINTS 2601 float
0.0 0.0 0.0
0.02 0.0 0.0
0.04 0.0 0.0
0.06 0.0 0.0
0.08 0.0 0.0
0.1 0.0 0.0
0.12 0.0 0.0
0.14 0.0 0.0
0.16 0.0 0.0
0.18 0.0 0.0
0.2 0.0 0.0
0.22 0.0 0.0
0.24 0.0 0.0
0.26 0.0 0.0
0.28 0.0 0.0
0.3 0.0 0.0
0.32 0.0 0.0
0.34 0.0 0.0
0.36 0.0 0.0
0.38 0.0 0.0
0.4 0.0 0.0
0.42 0.0 0.0
0.44 0.0 0.0
0.46 0.0 0.0
0.48 0.0 0.0
0.5 0.0 0.0
0.52 0.0 0.0
0.54 0.0 0.0
0.56 0.0 0.0
0.58 0.0 0.0
0.6 0.0 0.0
0.62 0.0 0.0
0.64 0.0 0.0
0.66 0.0 0.0
0.68 0.0 0.0
0.7000000000000001 0.0 0.0
0.72 0.0 0.0
0.74 0.0 0.0
0.76 0.0 0.0
0.78 0.0 0.0
0.8 0.0 0.0
0.8200000000000001 0.0 0.0
0.84 0.0 0.0
0.86 0.0 0.0
0.88 0.0 0.0
0.9 0.0 0.0
0.92 0.0 0.0
0.9400000000000001 0.0 0.0
0.96 0.0 0.0
0.98 0.0 0.0
1.0 0.0 0.0
0.0 0.02 0.0
0.02 0.02 0.0
0.04 0.02 0.0
0.06 0.02 0.0
0.08 0.02 0.0
0.1 0.02 0.0
0.12 0.02 0.0
0.14 0.02 0.0
0.16 0.02 0.0
0.18 0.02 0.0
0.2 0.02 0.0
0.22 0.02 0.0
0.24 0.02 0.0
0.26 0.02 0.0
0.28 0.02 0.0
0.3 0.02 0.0
0.32 0.02 0.0
0.34 0.02 0.0
0.36 0.02 0.0
0.38 0.02 0.0
0.4 0.02 0.0
0.42 0.02 0.0
0.44 0.02 0.0
0.46 0.02 0.0
0.48 0.02 0.0
0.5 0.02 0.0
0.52 0.02 0.0
0.54 0.02 0.0
0.56 0.02 0.0
0.58 0.02 0.0
0.6 0.02 0.0
0.62 0.02 0.0
0.64 0.02 0.0
0.66 0.02 0.0
0.68 0.02 0.0
0.7000000000000001 0.02 0.0
0.72 0.02 0.0
0.74 0.02 0.0
0.76 0.02 0.0
0.78 0.02 0.0
0.8 0.02 0.0
0.8200000000000001 0.02 0.0
0.84 0.02 0.0
0.86 0.02 0.0
0.88 0.02 0.0
0.9 0.02 0.0
0.92 0.02 0.0
0.9400000000000001 0.02 0.0
0.96 0.02 0.0
0.98 0.02 0.0
1.0 0.02 0.0
0.0 0.04 0.0
0.02 0.04 0.0
0.04 0.04 0.0
0.06 0.04 0.0
0.08 0.04 0.0
0.1 0.04 0.0
0.12 0.04 0.0
0.14 0.04 0.0
0.16 0.04 0.0
0.18 0.04 0.0
0.2 0.04 0.0
0.22 0.04 0.0
0.24 0.04 0.0
0.26 0.04 0.0
0.28 0.04 0.0
0.3 0.04 0.0
0.32 0.04 0.0
0.34 0.04 0.0
0.36 0.04 0.0
0.38 0.04 0.0
0.4 0.04 0.0
0.42 0.04 0.0
0.44 0.04 0.0
0.46 0.04 0.0
0.48 0.04 0.0
0.5 0.04 0.0
0.52 0.04 0.0
0.54 0.04 0.0
0.56 0.04 0.0
0.58 0.04 0.0
0.6 0.04 0.0
0.62 0.04 0.0
0.64 0.04 0.0
0.66 0.04 0.0
0.68 0.04 0.0
0.7000000000000001 0.04 0.0
0.72 0.04 0.0
0.74 0.04 0.0
0.76 0.04 0.0
0.78 0.04 0.0
0.8 0.04 0.0
0.8200000000000001 0.04 0.0
0.84 0.04 0.0
0.86 0.04 0.0
0.88 0.04 0.0
0.9 0.04 0.0
0.92 0.04 0.0
0.9400000000000001 0.04 0.0
0.96 0.04 0.0
0.98 0.04 0.0
1.0 0.04 0.0
0.0 0.06 0.0
0.02 0.06 0.0
0.04 0.06 0.0
0.06 0.06 0.0
0.08 0.06 0.0
0.1 0.06 0.0
0.12 0.06 0.0
0.14 0.06 0.0
0.16 0.06 0.0
0.18 0.06 0.0
0.2 0.06 0.0
0.22 0.06 0.0
0.24 0.06 0.0
0.26 0.06 0.0
0.28 0.06 0.0
0.3 0.06 0.0
0.32 0.06 0.0
0.34 0.06 0.0
0.36 0.06 0.0
0.38 0.06 0.0
0.4 0.06 0.0
0.42 0.06 0.0
0.44 0.06 0.0
0.46 0.06 0.0
0.48 0.06 0.0
0.5 0.06 0.0
0.52 0.06 0.0
0.54 0.06 0.0
0.56 0.06 0.0
0.58 0.06 0.0
0.6 0.06 0.0
0.62 0.06 0.0
0.64 0.06 0.0
0.66 0.06 0.0
0.68 0.06 0.0
0.7000000000000001 0.06 0.0
0.72 0.06 0.0
0.74 0.06 0.0
0.76 0.06 0.0
0.78 0.06 0.0
0.8 0.06 0.0
0.8200000000000001 0.06 0.0
0.84 0.06 0.0
0.86 0.06 0.0
0.88 0.06 0.0
0.9 0.06 0.0
0.92 0.06 0.0
0.9400000000000001 0.06 0.0
0.96 0.06 0.0
0.98 0.06 0.0
1.0 0.06 0.0
0.0 0.08 0.0
0.02 0.08 0.0
0.04 0.08 0.0
0.06 0.08 0.0
0.08 0.08 0.0
0.1 0.08 0.0
0.12 0.08 0.0
0.14 0.08 0.0
0.16 0.08 0.0
0.18 0.08 0.0
0.2 0.08 0.0
0.22 0.08 0.0
0.24 0.08 0.0
0.26 0.08 0.0
0.28 0.08 0.0
0.3 0.08 0.0
0.32 0.08 0.0
0.34 0.08 0.0
0.36 0.08 0.0
0.38 0.08 0.0
0.4 0.08 0.0
0.42 0.08 0.0
0.44 0.08 0.0
0.46 0.08 0.0
0.48 0.08 0.0
0.5 0.08 0.0
0.52 0.08 0.0
0.54 0.08 0.0
0.56 0.08 0.0
0.58 0.08 0.0
0.6 0.08 0.0
0.62 0.08 0.0
0.64 0.08 0.0
0.66 0.08 0.0
0.68 0.08 0.0
0.7000000000000001 0.08 0.0
0.72 0.08 0.0
0.74 0.08 0.0
0.76 0.08 0.0
0.78 0.08 0.0
0.8 0.08 0.0
0.8200000000000001 0.08 0.0
0.84 0.08 0.0
0.86 0.08 0.0
0.88 0.08 0.0
0.9 0.08 0.0
0.92 0.08 0.0
0.9400000000000001 0.08 0.0
0.96 0.08 0.0
0.98 0.08 0.0
1.0 0.08 0.0
0.0 0.1 0.0
0.02 0.1 0.0
0.04 0.1 0.0
0.06 0.1 0.0
0.08 0.1 0.0
0.1 0.1 0.0
0.12 0.1 0.0
0.14 0.1 0.0
0.16 0.1 0.0
0.18 0.1 0.0
0.2 0.1 0.0
0.22 0.1 0.0
0.24 0.1 0.0
0.26 0.1 0.0
0.28 0.1 0.0
0.3 0.1 0.0
0.32 0.1 0.0
0.34 0.1 0.0
0.36 0.1 0.0
0.38 0.1 0.0
0.4 0.1 0.0
0.42 0.1 0.0
0.44 0.1 0.0
0.46 0.1 0.0
0.48 0.1 0.0
0.5 0.1 0.0
0.52 0.1 0.0
0.54 0.1 0.0
0.56 0.1 0.0
0.58 0.1 0.0
0.6 0.1 0.0
0.62 0.1 0.0
0.64 0.1 0.0
0.66 0.1 0.0
0.68 0.1 0.0
0.7000000000000001 0.1 0.0
0.72 0.1 0.0
0.74 0.1 0.0
0.76 0.1 0.0
0.78 0.1 0.0
0.8 0.1 0.0
0.8200000000000001 0.1 0.0
0.84 0.1 0.0
0.86 0.1 0.0
0.88 0.1 0.0
0.9 0.1 0.0
0.92 0.1 0.0
0.9400000000000001 0.1 0.0
0.96 0.1 0.0
0.98 0.1 0.0
1.0 0.1 0.0
0.0 0.12 0.0
0.02 0.12 0.0
0.04 0.12 0.0
0.06 0.12 0.0
0.08 0.12 0.0
0.1 0.12 0.0
0.12 0.12 0.0
0.14 0.12 0.0
0.16 0.12 0.0
0.18 0.12 0.0
0.2 0.12 0.0
0.22 0.12 0.0
0.24 0.12 0.0
0.26 0.12 0.0
0.28 0.12 0.0
0.3 0.12 0.0
0.32 0.12 0.0
0.34 0.12 0.0
0.36 0.12 0.0
0.38 0.12 0.0
0.4 0.12 0.0
0.42 0.12 0.0
0.44 0.12 0.0
0.46 0.12 0.0
0.48 0.12 0.0
0.5 0.12 0.0
0.52 0.12 0.0
0.54 0.12 0.0
0.56 0.12 0.0
0.58 0.12 0.0
0.6 0.12 0.0
0.62 0.12 0.0
0.64 0.12 0.0
0.66 0.12 0.0
0.68 0.12 0.0
0.7000000000000001 0.12 0.0
0.72 0.12 0.0
0.74 0.12 0.0
0.76 0.12 0.0
0.78 0.12 0.0
0.8 0.12 0.0
0.8200000000000001 0.12 0.0
0.84 0.12 0.0
0.86 0.12 0.0
0.88 0.12 0.0
0.9 0.12 0.0
0.92 0.12 0.0
0.9400000000000001 0.12 0.0
0.96 0.12 0.0
0.98 0.12 0.0
1.0 0.12 0.0
0.0 0.14 0.0
0.02 0.14 0.0
0.04 0.14 0.0
0.06 0.14 0.0
0.08 0.14 0.0
0.1 0.14 0.0
0.12 0.14 0.0
0.14 0.14 0.0
0.16 0.14 0.0
0.18 0.14 0.0
0.2 0.14 0.0
0.22 0.14 0.0
0.24 0.14 0.0
0.26 0.14 0.0
0.28 0.14 0.0
0.3 0.14 0.0
0.32 0.14 0.0
0.34 0.14 0.0
0.36 0.14 0.0
0.38 0.14 0.0
0.4 0.14 0.0
0.42 0.14 0.0
0.44 0.14 0.0
0.46 0.14 0.0
0.48 0.14 0.0
0.5 0.14 0.0
0.52 0.14 0.0
0.54 0.14 0.0
0.56 0.14 0.0
0.58 0.14 0.0
0.6 0.14 0.0
0.62 0.14 0.0
0.64 0.14 0.0
0.66 0.14 0.0
0.68 0.14 0.0
0.7000000000000001 0.14 0.0
0.72 0.14 0.0
0.74 0.14 0.0
0.76 0.14 0.0
0.78 0.14 0.0
0.8 0.14 0.0
0.8200000000000001 0.14 0.0
0.84 0.14 0.0
0.86 0.14 0.0
0.88 0.14 0.0
0.9 0.14 0.0
0.92 0.14 0.0
0.9400000000000001 0.14 0.0
0.96 0.14 0.0
0.98 0.14 0.0
1.0 0.14 0.0
0.0 0.16 0.0
0.02 0.16 0.0
0.04 0.16 0.0
0.06 0.16 0.0
0.08 0.16 0.0
0.1 0.16 0.0
0.12 0.16 0.0
0.14 0.16 0.0
0.16 0.16 0.0
0.18 0.16 0.0
0.2 0.16 0.0
0.22 0.16 0.0
0.24 0.16 0.0
0.26 0.16 0.0
0.28 0.16 0.0
0.3 0.16 0.0
0.32 0.16 0.0
0.34 0.16 0.0
0.36 0.16 0.0
0.38 0.16 0.0
0.4 0.16 0.0
0.42 0.16 0.0
0.44 0.16 0.0
0.46 0.16 0.0
0.48 0.16 0.0
0.5 0.16 0.0
0.52 0.16 0.0
0.54 0.16 0.0
0.56 0.16 0.0
0.58 0.16 0.0
0.6 0.16 0.0
0.62 0.16 0.0
0.64 0.16 0.0
0.66 0.16 0.0
0.68 0.16 0.0
0.7000000000000001 0.16 0.0
0.72 0.16 0.0
0.74 0.16 0.0
0.76 0.16 0.0
0.78 0.16 0.0
0.8 0.16 0.0
0.8200000000000001 0.16 0.0
0.84 0.16 0.0
0.86 0.16 0.0
0.88 0.16 0.0
0.9 0.16 0.0
0.92 0.16 0.0
0.9400000000000001 0.16 0.0
0.96 0.16 0.0
0.98 0.16 0.0
1.0 0.16 0.0
0.0 0.18 0.0
0.02 0.18 0.0
0.04 0.18 0.0
0.06 0.18 0.0
0.08 0.18 0.0
0.1 0.18 0.0
0.12 0.18 0.0
0.14 0.18 0.0
0.16 0.18 0.0
0.18 0.18 0.0
0.2 0.18 0.0
0.22 0.18 0.0
0.24 0.18 0.0
0.26 0.18 0.0
0.28 0.18 0.0
0.3 0.18 0.0
0.32 0.18 0.0
0.34 0.18 0.0
0.36 0.18 0.0
0.38 0.18 0.0
0.4 0.18 0.0
0.42 0.18 0.0
0.44 0.18 0.0
0.46 0.18 0.0
0.48 0.18 0.0
0.5 0.18 0.0
0.52 0.18 0.0
0.54 0.18 0.0
0.56 0.18 0.0
0.58 0.18 0.0
0.6 0.18 0.0
0.62 0.18 0.0
0.64 0.18 0.0
0.66 0.18 0.0
0.68 0.18 0.0
0.7000000000000001 0.18 0.0
0.72 0.18 0.0
0.74 0.18 0.0
0.76 0.18 0.0
0.78 0.18 0.0
0.8 0.18 0.0
0.8200000000000001 0.18 0.0
0.84 0.18 0.0
0.86 0.18 0.0
0.88 0.18 0.0
0.9 0.18 0.0
0.92 0.18 0.0
0.9400000000000001 0.18 0.0
0.96 0.18 0.0
0.98 0.18 0.0
1.0 0.18 0.0
0.0 0.2 0.0
0.02 0.2 0.0
0.04 0.2 0.0
0.06 0.2 0.0
0.08 0.2 0.0
0.1 0.2 0.0
0.12 0.2 0.0
0.14 0.2 0.0
0.16 0.2 0.0
0.18 0.2 0.0
0.2 0.2 0.0
0.22 0.2 0.0
0.24 0.2 0.0
0.26 0.2 0.0
0.28 0.2 0.0
0.3 0.2 0.0
0.32 0.2 0.0
0.34 0.2 0.0
0.36 0.2 0.0
0.38 0.2 0.0
0.4 0.2 0.0
0.42 0.2 0.0
0.44 0.2 0.0
0.46 0.2 0.0
0.48 0.2 0.0
0.5 0.2 0.0
0.52 0.2 0.0
0.54 0.2 0.0
0.56 0.2 0.0
0.58 0.2 0.0
0.6 0.2 0.0
0.62 0.2 0.0
0.64 0.2 0.0
0.66 0.2 0.0
0.68 0.2 0.0
0.7000000000000001 0.2 0.0
0.72 0.2 0.0
0.74 0.2 0.0
0.76 0.2 0.0
0.78 0.2 0.0
0.8 0.2 0.0
0.8200000000000001 0.2 0.0
0.84 0.2 0.0
0.86 0.2 0.0
0.88 0.2 0.0
0.9 0.2 0.0
0.92 0.2 0.0
0.9400000000000001 0.2 0.0
0.96 0.2 0.0
0.98 0.2 0.0
1.0 0.2 0.0
0.0 0.22 0.0
0.02 0.22 0.0
0.04 0.22 0.0
0.06 0.22 0.0
0.08 0.22 0.0
0.1 0.22 0.0
0.12 0.22 0.0
0.14 0.22 0.0
0.16 0.22 0.0
0.18 0.22 0.0
0.2 0.22 0.0
0.22 0.22 0.0
0.24 0.22 0.0
0.26 0.22 0.0
0.28 0.22 0.0
0.3 0.22 0.0
0.32 0.22 0.0
0.34 0.22 0.0
0.36 0.22 0.0
0.38 0.22 0.0
0.4 0.22 0.0
0.42 0.22 0.0
0.44 0.22 0.0
0.46 0.22 0.0
0.48 0.22 0.0
0.5 0.22 0.0
0.52 0.22 0.0
0.54 0.22 0.0
0.56 0.22 0.0
0.58 0.22 0.0
0.6 0.22 0.0
0.62 0.22 0.0
0.64 0.22 0.0
0.66 0.22 0.0
0.68 0.22 0.0
0.7000000000000001 0.22 0.0
0.72 0.22 0.0
0.74 0.22 0.0
0.76 0.22 0.0
0.78 0.22 0.0
0.8 0.22 0.0
0.8200000000000001 0.22 0.0
0.84 0.22 0.0
0.86 0.22 0.0
0.88 0.22 0.0
0.9 0.22 0.0
0.92 0.22 0.0
0.9400000000000001 0.22 0.0
0.96 0.22 0.0
0.98 0.22 0.0
1.0 0.22 0.0
0.0 0.24 0.0
0.02 0.24 0.0
0.04 0.24 0.0
0.06 0.24 0.0
0.08 0.24 0.0
0.1 0.24 0.0
0.12 0.24 0.0
0.14 0.24 0.0
0.16 0.24 0.0
0.18 0.24 0.0
0.2 0.24 0.0
0.22 0.24 0.0
0.24 0.24 0.0
0.26 0.24 0.0
0.28 0.24 0.0
0.3 0.24 0.0
0.32 0.24 0.0
0.34 0.24 0.0
0.36 0.24 0.0
0.38 0.24 0.0
0.4 0.24 0.0
0.42 0.24 0.0
0.44 0.24 0.0
0.46 0.24 0.0
0.48 0.24 0.0
0.5 0.24 0.0
0.52 0.24 0.0
0.54 0.24 0.0
0.56 0.24 0.0
0.58 0.24 0.0
0.6 0.24 0.0
0.62 0.24 0.0
0.64 0.24 0.0
0.66 0.24 0.0
0.68 0.24 0.0
0.7000000000000001 0.24 0.0
0.72 0.24 0.0
0.74 0.24 0.0
0.76 0.24 0.0
0.78 0.24 0.0
0.8 0.24 0.0
0.8200000000000001 0.24 0.0
0.84 0.24 0.0
0.86 0.24 0.0
0.88 0.24 0.0
0.9 0.24 0.0
0.92 0.24 0.0
0.9400000000000001 0.24 0.0
0.96 0.24 0.0
0.98 0.24 0.0
1.0 0.24 0.0
0.0 0.26 0.0
0.02 0.26 0.0
0.04 0.26 0.0
0.06 0.26 0.0
0.08 0.26 0.0
0.1 0.26 0.0
0.12 0.26 0.0
0.14 0.26 0.0
0.16 0.26 0.0
0.18 0.26 0.0
0.2 0.26 0.0
0.22 0.26 0.0
0.24 0.26 0.0
0.26 0.26 0.0
0.28 0.26 0.0
0.3 0.26 0.0
0.32 0.26 0.0
0.34 0.26 0.0
0.36 0.26 0.0
0.38 0.26 0.0
0.4 0.26 0.0
0.42 0.26 0.0
0.44 0.26 0.0
0.46 0.26 0.0
0.48 0.26 0.0
[...]
CELL_DATA 2500
SCALARS u float 1
LOOKUP_TABLE u_cell_table
6.33010176432728e-05 0.00011859997962161251 0.00010631240112489728 6.622311669536064e-06 -0.0001803787702416756 -0.0004459442817215819 -0.0007781096886426715 -0.0011643588976832657 -0.0015927214177659558 -0.002052334094366062 -0.0025334363198097083 -0.003027390983187611 -0.003526370855131335 -0.004023264238204799 -0.004511309380395458 -0.004984041183488304 -0.0054349829417004985 -0.005857700093717299 -0.006245596570452292 -0.006592095700845338 -0.006890551829486229 -0.0071345494410352955 -0.007317915937394136 -0.007435109697829647 -0.00748130119851746 -0.0074528043859601115 -0.00734717749547603 -0.0071636382946078615 -0.006903123684437458 -0.006568620854224499 -0.0061651207477408 -0.0056998000641548295 -0.005181814480301999 -0.004622286543786614 -0.004033913660887882 -0.0034307540264473494 -0.0028276662951524645 -0.0022399276650996243 -0.0016825562164015004 -0.0011698095059258509 -0.000714413383639243 -0.0003268785875903613 -1.4367369074377444e-05 0.0002209489997634481 0.00038540303742384764 0.0005014959041500399 0.0006259041084940864 0.0008886084699697886 0.0015567760315262635 0.0 5.8761719613722325e-05 4.3147446871588235e-05 -0.00013701393200487644 -0.0005182661481709838 -0.0011044542631900673 -0.0018807635110835363 -0.002823273451039615 -0.0039041352905131816 -0.005095211640467542 -0.0063692034236166335 -0.007700931904633688 -0.009066847444495211 -0.010445507170057764 -0.011816510214663518 -0.013160835683322861 -0.01445968915378508 -0.015695001202000045 -0.01684841959727209 -0.017902089116231108 -0.018837885233494625 -0.019638490300909882 -0.020286876285235126 -0.02076762396582252 -0.021066601513748152 -0.02117242540580551 -0.021076236873239118 -0.020773167751566117 -0.0202620846073572 -0.01954690032241458 -0.018636140729611717 -0.017543941430478313 -0.01628930404373946 -0.014896648091413552 -0.013394671726814394 -0.011816394415336901 -0.01019761657077602 -0.00857647686724819 -0.006991590524306601 -0.005481214356017879 -0.004081174319027486 -0.002823697198743427 -0.001735098222865077 -0.0008340553422501197 -0.00012861060959405842 0.0003865789757993371 0.0007329470966761414 0.0009436168570353404 0.0010321419364800932 0.0008800056586457625 0.0 -8.975749008299165e-06 -0.0001915799123795938 -0.0006291122025939954 -0.001355744765906871 -0.002372775622275463 -0.00366074384349198 -0.005187806487420496 -0.00691646787419101 -0.00880695479919673 -0.010820301231548247 -0.012918775832253074 -0.015067180124788412 -0.01723188770935919 -0.019381508263005064 -0.02148544684343393 -0.023514556232438526 -0.025439712745752466 -0.02723276021218049 -0.028865344915643083 -0.030310255225322602 -0.03154059286939867 -0.03253148243853273 -0.0332595445049763 -0.03370486241504575 -0.033850645642436686 -0.033685282153586474 -0.033202027848754485 -0.03240093547077418 -0.03128837724103417 -0.029878629276199692 -0.02819303660692008 -0.026261054825213445 -0.0241189089933223 -0.0218099594086804 -0.0193827908645825 -0.016890872228766826 -0.01439012485847161 -0.011937959172992505 -0.009590470594081137 -0.007401009536704631 -0.005417186662360912 -0.003679136988163658 -0.002216553577397441 -0.0010471024974759626 -0.00017484038416541367 0.00040753836006401315 0.0007106659855678034 0.0007312660472290396 0.0004512653309288268 0.0 -0.00010117560471346228 -0.0004995874805473839 -0.0012472487706347104 -0.002362384399355071 -0.0038368773594913324 -0.005643529575308544 -0.007743580583958096 -0.010091303818912831 -0.012638801331208125 -0.015337470050658473 -0.018140576007273392 -0.021002641187381165 -0.02388087902604572 -0.026733569240360886 -0.029521184152750818 -0.032204485646189204 -0.034745836397931266 -0.03710744513001838 -0.03925309153167886 -0.04114671322196723 -0.04275458319966664 -0.04404426547262949 -0.04498715364250468 -0.045557707193392874 -0.045736173510974885 -0.045507940602516984 -0.04486621115855792 -0.0438112627953411 -0.042352817954127216 -0.04050898999839041 -0.03830810090733505 -0.03578711705366697 -0.03299271562081208 -0.02997908390710652 -0.02680812874401105 -0.023546624950847337 -0.020265589653534248 -0.017036899317728584 -0.013931985221879876 -0.011018163750288976 -0.00835693206970448 -0.006000398702278621 -0.0039896995910145 -0.002352397700872742 -0.0011024539727710633 -0.0002406821689160825 0.00024261086634781302 0.0003715127138355835 0.0002168020824073395 0.0 -0.00020014250924687085 -0.0008356962194988355 -0.0019206397687453526 -0.0034495795928242406 -0.005398621604696048 -0.0077301286157637795 -0.010396395242814594 -0.013344653495546113 -0.016519074132268077 -0.019864238376272464 -0.02332504847903975 -0.02684890896218438 -0.030384237748855975 -0.03388206583711576 -0.03729392890040603 -0.04057347505262342 -0.043674304348143685 -0.0465519328415562 -0.049161901026438325 -0.05146222087429175 -0.053411867917233825 -0.05497366966995028 -0.056113144284868854 -0.056801673842645964 -0.057015550535972986 -0.05673920662238181 -0.055964267070841046 -0.05469256968336102 -0.0529349942136134 -0.05071399776599618 -0.048061994652574845 -0.04502315778928964 -0.04165116719292236 -0.0380100959040064 -0.03417143477540259 -0.030213995929758968 -0.026220255839499648 -0.022275362649366474 -0.018463003590004183 -0.01486377751726883 -0.011550975834445122 -0.008588789481466642 -0.006028638025232404 -0.00390796349580696 -0.0022478966186542213 -0.0010527623483710766 -0.00030659907989346935 3.6000534132716566e-05 7.499209709073049e-05 0.0 -0.00029874027620629625 -0.0011771363243228453 -0.0026098374421248834 -0.004563397128923823 -0.00699493495970987 -0.009852659974277221 -0.013079274210322924 -0.01661327772261853 -0.020392523181277284 -0.024354231546706052 -0.02843771946041273 -0.03258300455801115 -0.03673291513458028 -0.040830827264403534 -0.044822647138321854 -0.04865426837953437 -0.05227382405943612 -0.05562928171996687 -0.05867116804136493 -0.061350510819037994 -0.06362205531862306 -0.0654425861471324 -0.06677451699304099 -0.06758449991671871 -0.06784718180996571 -0.0675439296194622 -0.06666649642511281 -0.06521564694939608 -0.06320445273448298 -0.06065658534175596 -0.05760896103530525 -0.05410948135883974 -0.050218781087679715 -0.04600724887961324 -0.04155571297565419 -0.03695168227407686 -0.03228894368196292 -0.027663130294057817 -0.023170397942405878 -0.01890263732924168 -0.014945620998926105 -0.011374393461093538 -0.008251464840293442 -0.005622968143525817 -0.0035171787846751804 -0.0019408773284804925 -0.0008757312999204301 -0.0002697552076792176 -2.63125570325917e-05 0.0 -0.0003942290275314404 -0.0015129966776152104 -0.0032929185588856584 -0.005671902172821496 -0.008585186630195816 -0.011965847925347491 -0.01574435038931398 -0.01985110833022002 -0.024215985766798738 -0.02877098558964838 -0.033448755461363285 -0.03818496001125373 -0.04291588907335378 -0.04758071180139614 -0.05211863947232139 -0.056471394512411836 -0.06058036610076103 -0.06438952764529579 -0.06784286579246869 -0.07088781674128036 -0.0734730734534052 -0.07555246689660684 -0.07708311689466912 -0.07802958531351684 -0.07836224388075864 -0.078061467687778 -0.07711603752918542 -0.07552710831970155 -0.07330642937035779 -0.07047980233548021 -0.06708488485907387 -0.06317384952506334 -0.05881054498361314 -0.05407210064047446 -0.049045279302851255 -0.04382687032974383 -0.038519204422296165 -0.03322935898128957 -0.028064022636727623 -0.023127784628461406 -0.018517790901591336 -0.014321624401157213 -0.010612347766634203 -0.00744646537548519 -0.004859600794652569 -0.0028641872761546853 -0.001444703301843124 -0.0005538782955828039 -0.00010918639332662761 0.0 -0.00048570059069940946 -0.0018378268713728314 -0.003958152314993024 -0.006755660155267913 -0.010143914887424553 -0.014038583367958485 -0.01835833248712119 -0.023023234996504233 -0.027956800472248074 -0.033083997798067526 -0.038333529751099334 -0.04363515245204468 -0.048922037835826736 -0.05412760439904145 -0.059188133642146125 -0.06403948361645644 -0.06862015546643432 -0.07286819593254704 -0.07672480435802702 -0.08013158537129188 -0.08303465746928328 -0.0853822795362185 -0.08712932322813106 -0.08823519947356934 -0.08866849693478246 -0.08840507343415481 -0.08743262620280715 -0.08574876941420727 -0.08336526963395441 -0.0803058895081851 -0.07660998765932638 -0.07232987361948594 -0.06753345227591627 -0.062300834132133595 -0.0567257394124205 -0.05091118464120073 -0.04496949497768012 -0.03901707729672297 -0.03317313693631144 -0.02755383429627113 -0.02227010911086337 -0.01742179654493066 -0.013095163490580543 -0.009357604232545409 -0.006255326049570862 -0.003808875192940082 -0.002011132429501714 -0.0008245867244297167 -0.00018305053253936317 0.0 -0.0005726492658713931 -0.0021491305574007193 -0.0045986394297967675 -0.007803241338850446 -0.011653928929448045 -0.01604998413008904 -0.020896202055475988 -0.026103833420501182 -0.031587831130750324 -0.03726859873572862 -0.043068819450713045 -0.04891563984630076 -0.05473708844523923 -0.06046466908726557 -0.0660296213928114 -0.07136602600988651 -0.07640718794748495 -0.08108932249266723 -0.08534824988848456 -0.0891236359422643 -0.09235606780996351 -0.09499173752451445 -0.0969798758500939 -0.09827771437326156 -0.09884819567256452 -0.09866501955179713 -0.0977105043400321 -0.09598049045244136 -0.09348217572272764 -0.09023859706685872 -0.08628619410372038 -0.08167852409850637 -0.07648324440881023 -0.07078467687964343 -0.06467989419070436 -0.0582798020323014 -0.0517041328359217 -0.045080914424286904 -0.03854045022083726 -0.03221338728799146 -0.02622413883902877 -0.02068813668791432 -0.01570545578451914 -0.011358027094266792 -0.007704273523936227 -0.004777050772011562 -0.0025802829831918367 -0.0010892743551442732 -0.0002524502513015423 0.0 -0.0006549804492055713 -0.0024453095674299764 -0.005210591386892597 -0.008806643369255969 -0.013103871924548757 -0.01798391225050094 -0.02333951954684063 -0.029071006797991187 -0.03508718385939319 -0.041301524618532766 -0.04763388175294752 -0.05400636099321905 -0.06034568363004532 -0.06657892538198627 -0.0726365252199522 -0.0784481173976333 -0.0839462008922023 -0.08906225055290959 -0.09373100631562047 -0.09788695955234329 -0.10146915782005278 -0.10441808323518784 -0.1066808311577149 -0.10820834871108578 -0.10896083124293904 -0.10890525621159133 -0.10802082228806112 -0.1062966664125186 -0.10373711789111947 -0.10035940214481097 -0.09619838735300257 -0.09130396414583955 -0.08574485398201936 -0.07960525866799745 -0.07298724855279004 -0.06600628469669118 -0.058791804285906024 -0.05148141715374962 -0.04421961719045427 -0.03715086083589919 -0.03041681160868831 -0.024149003237398315 -0.018465484353026446 -0.01346413111404181 -0.009219809483823711 -0.005779579462762516 -0.0031617504272666666 -0.0013547566473963632 -0.00032038201201561585 0.0 -0.0007325148709598371 -0.0027255918395941076 -0.005790812768908141 -0.009760446733739651 -0.014484118488887584 -0.01982819272700319 -0.02567177875912624 -0.0319068356850631 -0.038433686112785144 -0.045162042561030326 -0.05200625073321265 -0.058887193475288285 -0.06572743455213546 -0.07245395290957304 -0.07899338141890468 -0.0852755284839264 -0.09122888092873843 -0.09678483684678026 -0.10187357578257832 -0.10642888473783227 -0.11038443574785146 -0.11367906805748638 -0.1162534788046963 -0.11805583129627793 -0.11903884987427617 -0.11916563029859896 -0.11840710161330822 -0.11674788166216551 -0.11418399133434047 -0.11072849987051556 -0.10640923701590271 -0.10127381707988983 -0.09538692263033507 -0.0888341422122636 -0.08171827989482477 -0.07416139862525511 -0.06629966653919525 -0.058283189865048726 -0.050269241023336075 -0.04241994583770939 -0.03489433033003662 -0.027844584771969858 -0.02140801074941005 -0.015703148193471964 -0.010823124547977767 -0.006833203756281709 -0.003767197233366987 -0.0016280950481438665 -0.00038916771978968917 0.0 -0.0008053104257283521 -0.0029888324243695693 -0.006336949383121042 -0.010659106284706985 -0.015787000665930348 -0.021570873848080284 -0.027879079337634807 -0.034593195389423806 -0.0416083155139951 -0.048827681110905324 -0.05616395652213285 -0.06353372758315647 -0.07085978402595156 -0.0780657132357546 -0.08507912891236452 -0.0918265274392028 -0.0982373513593299 -0.10423921084561953 -0.10976263451763887 -0.11473670401696774 -0.11909433912958288 -0.12276837144766796 -0.12569723931074922 -0.1278215327066033 -0.1290900112606468 -0.12945665365102152 -0.12888691485704432 -0.12735526417158594 -0.12485152411879318 -0.12137874794277095 -0.11695931509548488 -0.11163278431010165 -0.10546119068783119 -0.0985262754143501 -0.09093323484886269 -0.0828066027434267 -0.07429170045287144 -0.06554860151709674 -0.05675088095769079 -0.04807763557658323 -0.039709855173384837 -0.031821313302852 -0.024573758495950178 -0.018108283995796778 -0.012541148900283525 -0.007957580486553381 -0.004410078146143492 -0.0019163147364336963 -0.0004611018930724812 0.0 -0.0008730391178902847 -0.003234093559177344 -0.00684581405119834 -0.011497885911414204 -0.017004024926068464 -0.023201536398365887 -0.029946526343048757 -0.03711361204406988 -0.044590133535230975 -0.05227673515195396 -0.06008125096892912 -0.06792038953279317 -0.07571365894367263 -0.08338615217092318 -0.0908627247350647 -0.09807176209932457 -0.1049397242667892 -0.1113957180381318 -0.11736645813727116 -0.12278145951416793 -0.12756844480104748 -0.13165901423132187 -0.13498455158257294 -0.1374822977123767 -0.13909184041094755 -0.13976156554406718 -0.13944581009206414 -0.13811163921096745 -0.13573664628631388 -0.13231586496965458 -0.12785998828886294 -0.12240196801605821 -0.11599511888823288 -0.1087186434299802 -0.10067478779609952 -0.09199230678568267 -0.08282173600163188 -0.07333590240551022 -0.06372270118252799 -0.05418235295127409 -0.044917924398075085 -0.03613008979311518 -0.028006780874257706 -0.020717300787879773 -0.014403349123948164 -0.009174814823343593 -0.005104402791973478 -0.0022268605737140075 -0.0005382832867641626 0.0 -0.0009354578578490353 -0.0034596729192051083 -0.007314603169194546 -0.012270886388737655 -0.018127619677821158 -0.02470833882116531 -0.03186048741880958 -0.03944957121147156 -0.04735912537030447 -0.05548413547751375 -0.06373205534428025 -0.07201609695095149 -0.08025744811510456 -0.08837875925581692 -0.09630748990038375 -0.1039697538045196 -0.11129460811449465 -0.11820831764840911 -0.12463936676468308 -0.1305131679560287 -0.1357576164523503 -0.14029829434634908 -0.144064477537023 -0.14698494582850555 -0.14899444398145217 -0.15003024946158539 -0.15003912492619312 -0.14897475930651172 -0.14680517190989498 -0.14351097890324319 -0.1390929830477388 -0.1335709061525022 -0.1269905323944857 -0.1194221323508375 -0.1109661177894162 -0.10175001910618421 -0.09193137665101178 -0.08169210062541973 -0.0712375831165807 -0.06078786946755485 -0.05057294353292526 -0.04082142107552773 -0.03175343845400315 -0.02356904972755603 -0.016441371722557857 -0.010507591934382884 -0.0058650575713791965 -0.0025670463593974397 -0.0006229568118629216 0.0 -0.0009918943770997092 -0.0036641580136535555 -0.007739494277294749 -0.012972898781017893 -0.019148751075934556 -0.026080515488478284 -0.03360534482792192 -0.041583651422384696 -0.04989234760137175 -0.05842522962646882 -0.06708575701913458 -0.07578863053839563 -0.08445262321669648 -0.09300339718963756 -0.1013666473840436 -0.10947200372699 -0.11724658757868654 -0.1246197587406904 -0.1315171106886998 -0.13786583639724592 -0.14358919903347722 -0.14861238360740972 -0.15285755016761707 -0.15625016353950133 -0.15871481737528667 -0.1601821308235981 -0.16058556221886763 -0.15986896544969012 -0.1579845284295519 -0.15490093530198573 -0.15060231396010923 -0.1450966154019729 -0.13841501819209728 -0.1306196335373816 -0.12180226481380278 -0.112090024141555 -0.1016419193639806 -0.09065075928544057 -0.07933615215027125 -0.06794162539516378 -0.056723654955024565 -0.04594443895914915 -0.03585843585095615 -0.026703199027729364 -0.01868664232931373 -0.011979492739689885 -0.0067067528164541 -0.002944509644021668 -0.0007171958982198163 0.0 -0.0010419691786780609 -0.003845499667611846 -0.008117321228587417 -0.01359750012839735 -0.020059447893618125 -0.027305577472153685 -0.0351668071595761 -0.04349602542814042 -0.05216798688022213 -0.06107181349876186 -0.07011194008186616 -0.07920039546641995 -0.08825901997079973 -0.09721194193444489 -0.10598900136267796 -0.1145186045627429 -0.12273212622498178 -0.13055719185773573 -0.13792279443712263 -0.14475302675753937 -0.15097272143964596 -0.1565017154543857 -0.1612609608934845 -0.16516750782778195 -0.16814117783919352 -0.17010053953059165 -0.17097032219550923 -0.1706786652193563 -0.16916540947996 -0.166380758494036 -0.16229435352844473 -0.15689512457831337 -0.15020058165852737 -0.14225703382297916 -0.13314784625683773 -0.12299248081604704 -0.11195181016084049 -0.10022395735085361 -0.08804463875671203 -0.07567816666604606 -0.06341182548902351 -0.05154210750584438 -0.040364413546899215 -0.03015717970983198 -0.021170655244863754 -0.013613397820155415 -0.007644579255212988 -0.0033666073211298247 -0.0008232450674750616 0.0 -0.0010850062590058627 -0.004002227878289957 -0.008444046547294524 -0.014139358391134487 -0.020850410611375665 -0.028372625610579665 -0.03652878359793176 -0.04516867612284853 -0.05416167170421241 -0.06339712931652126 -0.07277632747903914 -0.08221407276070979 -0.09163060098511853 -0.10095445688070669 -0.11011468213525132 -0.11904479934647706 -0.12767539891369747 -0.13593895247766213 -0.1437628235896591 -0.15107466210770926 -0.15779588883807946 -0.16384754887320058 -0.16914442252625297 -0.1736013855788546 -0.1771284234019247 -0.1796376965172909 -0.18103982099133067 -0.18125190524501045 -0.1801954394685769 -0.17780548097486873 -0.1740302823209783 -0.16884146597656913 -0.16223501818670388 -0.1542416317136522 -0.14492786544569716 -0.13440490267691763 -0.1228277193673122 -0.11039968937971154 -0.0973671185206344 -0.08401722618265467 -0.0706662900949152 -0.05765035927778114 -0.04530796839638383 -0.033966272219961444 -0.023922713382562386 -0.015432077741163543 -0.00869297515824808 -0.00384093128832239 -0.0009431652565966569 0.0 -0.0011207254224799453 -0.004132336956791371 -0.008716683138279812 -0.014592240319983312 -0.02151414246897902 -0.029269594169233398 -0.037677594168869115 -0.046581999024705834 -0.0558516002563479 -0.06537200021939756 -0.0750466814667901 -0.08478850150545784 -0.0945220083638709 -0.10417504165533807 -0.11368224145108707 -0.12297697820945427 -0.13199581289456758 -0.14067081833438141 -0.14893470510734694 -0.1567135636409248 -0.1639324572680903 -0.17050868753426257 -0.17635782328725913 -0.18138772405446668 -0.18550516200330938 -0.18861097607962393 -0.19060759588420936 -0.1913957858371127 -0.1908834341416029 -0.18898430283612427 -0.18562830484623694 -0.180762377357524 -0.17436199322889998 -0.16643356991949682 -0.1570260274863144 -0.14623299015693003 -0.13420192351429777 -0.12113312527830675 -0.10728299833690726 -0.09295643833580439 -0.07850136123998881 -0.0642928689883193 -0.05071923991134496 -0.03816042413849908 -0.026970362122263426 -0.017456573497570637 -0.009866376019936353 -0.00437466872400279 -0.0010792022463497221 0.0 -0.0011484958344452581 -0.004234626739573416 -0.008931668714984988 -0.014951757365949106 -0.022042535679337907 -0.029987261298567474 -0.03859885006456337 -0.04771989067084856 -0.05721486394388968 -0.06697083287869092 -0.07688879337229625 -0.08688547048806054 -0.09688447577197931 -0.10681931454543817 -0.11662472999001236 -0.1262407660586298 -0.13560444671729915 -0.1446546113134373 -0.15332396791027053 -0.1615444395272204 -0.16923964867977903 -0.1763306487892136 -0.18272900688456883 -0.18834298808478975 -0.1930715575246982 -0.19681128657727137 -0.1994517502480275 -0.20088358725849445 -0.2009958710807728 -0.19968581069813565 -0.19685861429958737 -0.19243911755564191 -0.18637424234460206 -0.17864615763314676 -0.1692764262560626 -0.15833896412888313 -0.14596333431526434 -0.13234400856428197 -0.11773863423184928 -0.10246902348634641 -0.0869101662375132 -0.07147984899830145 -0.05661747162116014 -0.0427642281466128 -0.030336934346324524 -0.01970681