# vtk DataFile Version 3.0
vtk output
ASCII
DATASET STRUCTURED_GRID
DIMENSIONS 51 51 1
POINTS 2601 float
0.0 0.0 0.0
0.02 0.0 0.0
0.04 0.0 0.0
0.06 0.0 0.0
0.08 0.0 0.0
0.1 0.0 0.0
0.12 0.0 0.0
0.14 0.0 0.0
0.16 0.0 0.0
0.18 0.0 0.0
0.2 0.0 0.0
0.22 0.0 0.0
0.24 0.0 0.0
0.26 0.0 0.0
0.28 0.0 0.0
0.3 0.0 0.0
0.32 0.0 0.0
0.34 0.0 0.0
0.36 0.0 0.0
0.38 0.0 0.0
0.4 0.0 0.0
0.42 0.0 0.0
0.44 0.0 0.0
0.46 0.0 0.0
0.48 0.0 0.0
0.5 0.0 0.0
0.52 0.0 0.0
0.54 0.0 0.0
0.56 0.0 0.0
0.58 0.0 0.0
0.6 0.0 0.0
0.62 0.0 0.0
0.64 0.0 0.0
0.66 0.0 0.0
0.68 0.0 0.0
0.7000000000000001 0.0 0.0
0.72 0.0 0.0
0.74 0.0 0.0
0.76 0.0 0.0
0.78 0.0 0.0
0.8 0.0 0.0
0.8200000000000001 0.0 0.0
0.84 0.0 0.0
0.86 0.0 0.0
0.88 0.0 0.0
0.9 0.0 0.0
0.92 0.0 0.0
0.9400000000000001 0.0 0.0
0.96 0.0 0.0
0.98 0.0 0.0
1.0 0.0 0.0
0.0 0.02 0.0
0.02 0.02 0.0
0.04 0.02 0.0
0.06 0.02 0.0
0.08 0.02 0.0
0.1 0.02 0.0
0.12 0.02 0.0
0.14 0.02 0.0
0.16 0.02 0.0
0.18 0.02 0.0
0.2 0.02 0.0
0.22 0.02 0.0
0.24 0.02 0.0
0.26 0.02 0.0
0.28 0.02 0.0
0.3 0.02 0.0
0.32 0.02 0.0
0.34 0.02 0.0
0.36 0.02 0.0
0.38 0.02 0.0
0.4 0.02 0.0
0.42 0.02 0.0
0.44 0.02 0.0
0.46 0.02 0.0
0.48 0.02 0.0
0.5 0.02 0.0
0.52 0.02 0.0
0.54 0.02 0.0
0.56 0.02 0.0
0.58 0.02 0.0
0.6 0.02 0.0
0.62 0.02 0.0
0.64 0.02 0.0
0.66 0.02 0.0
0.68 0.02 0.0
0.7000000000000001 0.02 0.0
0.72 0.02 0.0
0.74 0.02 0.0
0.76 0.02 0.0
0.78 0.02 0.0
0.8 0.02 0.0
0.8200000000000001 0.02 0.0
0.84 0.02 0.0
0.86 0.02 0.0
0.88 0.02 0.0
0.9 0.02 0.0
0.92 0.02 0.0
0.9400000000000001 0.02 0.0
0.96 0.02 0.0
0.98 0.02 0.0
1.0 0.02 0.0
0.0 0.04 0.0
0.02 0.04 0.0
0.04 0.04 0.0
0.06 0.04 0.0
0.08 0.04 0.0
0.1 0.04 0.0
0.12 0.04 0.0
0.14 0.04 0.0
0.16 0.04 0.0
0.18 0.04 0.0
0.2 0.04 0.0
0.22 0.04 0.0
0.24 0.04 0.0
0.26 0.04 0.0
0.28 0.04 0.0
0.3 0.04 0.0
0.32 0.04 0.0
0.34 0.04 0.0
0.36 0.04 0.0
0.38 0.04 0.0
0.4 0.04 0.0
0.42 0.04 0.0
0.44 0.04 0.0
0.46 0.04 0.0
0.48 0.04 0.0
0.5 0.04 0.0
0.52 0.04 0.0
0.54 0.04 0.0
0.56 0.04 0.0
0.58 0.04 0.0
0.6 0.04 0.0
0.62 0.04 0.0
0.64 0.04 0.0
0.66 0.04 0.0
0.68 0.04 0.0
0.7000000000000001 0.04 0.0
0.72 0.04 0.0
0.74 0.04 0.0
0.76 0.04 0.0
0.78 0.04 0.0
0.8 0.04 0.0
0.8200000000000001 0.04 0.0
0.84 0.04 0.0
0.86 0.04 0.0
0.88 0.04 0.0
0.9 0.04 0.0
0.92 0.04 0.0
0.9400000000000001 0.04 0.0
0.96 0.04 0.0
0.98 0.04 0.0
1.0 0.04 0.0
0.0 0.06 0.0
0.02 0.06 0.0
0.04 0.06 0.0
0.06 0.06 0.0
0.08 0.06 0.0
0.1 0.06 0.0
0.12 0.06 0.0
0.14 0.06 0.0
0.16 0.06 0.0
0.18 0.06 0.0
0.2 0.06 0.0
0.22 0.06 0.0
0.24 0.06 0.0
0.26 0.06 0.0
0.28 0.06 0.0
0.3 0.06 0.0
0.32 0.06 0.0
0.34 0.06 0.0
0.36 0.06 0.0
0.38 0.06 0.0
0.4 0.06 0.0
0.42 0.06 0.0
0.44 0.06 0.0
0.46 0.06 0.0
0.48 0.06 0.0
0.5 0.06 0.0
0.52 0.06 0.0
0.54 0.06 0.0
0.56 0.06 0.0
0.58 0.06 0.0
0.6 0.06 0.0
0.62 0.06 0.0
0.64 0.06 0.0
0.66 0.06 0.0
0.68 0.06 0.0
0.7000000000000001 0.06 0.0
0.72 0.06 0.0
0.74 0.06 0.0
0.76 0.06 0.0
0.78 0.06 0.0
0.8 0.06 0.0
0.8200000000000001 0.06 0.0
0.84 0.06 0.0
0.86 0.06 0.0
0.88 0.06 0.0
0.9 0.06 0.0
0.92 0.06 0.0
0.9400000000000001 0.06 0.0
0.96 0.06 0.0
0.98 0.06 0.0
1.0 0.06 0.0
0.0 0.08 0.0
0.02 0.08 0.0
0.04 0.08 0.0
0.06 0.08 0.0
0.08 0.08 0.0
0.1 0.08 0.0
0.12 0.08 0.0
0.14 0.08 0.0
0.16 0.08 0.0
0.18 0.08 0.0
0.2 0.08 0.0
0.22 0.08 0.0
0.24 0.08 0.0
0.26 0.08 0.0
0.28 0.08 0.0
0.3 0.08 0.0
0.32 0.08 0.0
0.34 0.08 0.0
0.36 0.08 0.0
0.38 0.08 0.0
0.4 0.08 0.0
0.42 0.08 0.0
0.44 0.08 0.0
0.46 0.08 0.0
0.48 0.08 0.0
0.5 0.08 0.0
0.52 0.08 0.0
0.54 0.08 0.0
0.56 0.08 0.0
0.58 0.08 0.0
0.6 0.08 0.0
0.62 0.08 0.0
0.64 0.08 0.0
0.66 0.08 0.0
0.68 0.08 0.0
0.7000000000000001 0.08 0.0
0.72 0.08 0.0
0.74 0.08 0.0
0.76 0.08 0.0
0.78 0.08 0.0
0.8 0.08 0.0
0.8200000000000001 0.08 0.0
0.84 0.08 0.0
0.86 0.08 0.0
0.88 0.08 0.0
0.9 0.08 0.0
0.92 0.08 0.0
0.9400000000000001 0.08 0.0
0.96 0.08 0.0
0.98 0.08 0.0
1.0 0.08 0.0
0.0 0.1 0.0
0.02 0.1 0.0
0.04 0.1 0.0
0.06 0.1 0.0
0.08 0.1 0.0
0.1 0.1 0.0
0.12 0.1 0.0
0.14 0.1 0.0
0.16 0.1 0.0
0.18 0.1 0.0
0.2 0.1 0.0
0.22 0.1 0.0
0.24 0.1 0.0
0.26 0.1 0.0
0.28 0.1 0.0
0.3 0.1 0.0
0.32 0.1 0.0
0.34 0.1 0.0
0.36 0.1 0.0
0.38 0.1 0.0
0.4 0.1 0.0
0.42 0.1 0.0
0.44 0.1 0.0
0.46 0.1 0.0
0.48 0.1 0.0
0.5 0.1 0.0
0.52 0.1 0.0
0.54 0.1 0.0
0.56 0.1 0.0
0.58 0.1 0.0
0.6 0.1 0.0
0.62 0.1 0.0
0.64 0.1 0.0
0.66 0.1 0.0
0.68 0.1 0.0
0.7000000000000001 0.1 0.0
0.72 0.1 0.0
0.74 0.1 0.0
0.76 0.1 0.0
0.78 0.1 0.0
0.8 0.1 0.0
0.8200000000000001 0.1 0.0
0.84 0.1 0.0
0.86 0.1 0.0
0.88 0.1 0.0
0.9 0.1 0.0
0.92 0.1 0.0
0.9400000000000001 0.1 0.0
0.96 0.1 0.0
0.98 0.1 0.0
1.0 0.1 0.0
0.0 0.12 0.0
0.02 0.12 0.0
0.04 0.12 0.0
0.06 0.12 0.0
0.08 0.12 0.0
0.1 0.12 0.0
0.12 0.12 0.0
0.14 0.12 0.0
0.16 0.12 0.0
0.18 0.12 0.0
0.2 0.12 0.0
0.22 0.12 0.0
0.24 0.12 0.0
0.26 0.12 0.0
0.28 0.12 0.0
0.3 0.12 0.0
0.32 0.12 0.0
0.34 0.12 0.0
0.36 0.12 0.0
0.38 0.12 0.0
0.4 0.12 0.0
0.42 0.12 0.0
0.44 0.12 0.0
0.46 0.12 0.0
0.48 0.12 0.0
0.5 0.12 0.0
0.52 0.12 0.0
0.54 0.12 0.0
0.56 0.12 0.0
0.58 0.12 0.0
0.6 0.12 0.0
0.62 0.12 0.0
0.64 0.12 0.0
0.66 0.12 0.0
0.68 0.12 0.0
0.7000000000000001 0.12 0.0
0.72 0.12 0.0
0.74 0.12 0.0
0.76 0.12 0.0
0.78 0.12 0.0
0.8 0.12 0.0
0.8200000000000001 0.12 0.0
0.84 0.12 0.0
0.86 0.12 0.0
0.88 0.12 0.0
0.9 0.12 0.0
0.92 0.12 0.0
0.9400000000000001 0.12 0.0
0.96 0.12 0.0
0.98 0.12 0.0
1.0 0.12 0.0
0.0 0.14 0.0
0.02 0.14 0.0
0.04 0.14 0.0
0.06 0.14 0.0
0.08 0.14 0.0
0.1 0.14 0.0
0.12 0.14 0.0
0.14 0.14 0.0
0.16 0.14 0.0
0.18 0.14 0.0
0.2 0.14 0.0
0.22 0.14 0.0
0.24 0.14 0.0
0.26 0.14 0.0
0.28 0.14 0.0
0.3 0.14 0.0
0.32 0.14 0.0
0.34 0.14 0.0
0.36 0.14 0.0
0.38 0.14 0.0
0.4 0.14 0.0
0.42 0.14 0.0
0.44 0.14 0.0
0.46 0.14 0.0
0.48 0.14 0.0
0.5 0.14 0.0
0.52 0.14 0.0
0.54 0.14 0.0
0.56 0.14 0.0
0.58 0.14 0.0
0.6 0.14 0.0
0.62 0.14 0.0
0.64 0.14 0.0
0.66 0.14 0.0
0.68 0.14 0.0
0.7000000000000001 0.14 0.0
0.72 0.14 0.0
0.74 0.14 0.0
0.76 0.14 0.0
0.78 0.14 0.0
0.8 0.14 0.0
0.8200000000000001 0.14 0.0
0.84 0.14 0.0
0.86 0.14 0.0
0.88 0.14 0.0
0.9 0.14 0.0
0.92 0.14 0.0
0.9400000000000001 0.14 0.0
0.96 0.14 0.0
0.98 0.14 0.0
1.0 0.14 0.0
0.0 0.16 0.0
0.02 0.16 0.0
0.04 0.16 0.0
0.06 0.16 0.0
0.08 0.16 0.0
0.1 0.16 0.0
0.12 0.16 0.0
0.14 0.16 0.0
0.16 0.16 0.0
0.18 0.16 0.0
0.2 0.16 0.0
0.22 0.16 0.0
0.24 0.16 0.0
0.26 0.16 0.0
0.28 0.16 0.0
0.3 0.16 0.0
0.32 0.16 0.0
0.34 0.16 0.0
0.36 0.16 0.0
0.38 0.16 0.0
0.4 0.16 0.0
0.42 0.16 0.0
0.44 0.16 0.0
0.46 0.16 0.0
0.48 0.16 0.0
0.5 0.16 0.0
0.52 0.16 0.0
0.54 0.16 0.0
0.56 0.16 0.0
0.58 0.16 0.0
0.6 0.16 0.0
0.62 0.16 0.0
0.64 0.16 0.0
0.66 0.16 0.0
0.68 0.16 0.0
0.7000000000000001 0.16 0.0
0.72 0.16 0.0
0.74 0.16 0.0
0.76 0.16 0.0
0.78 0.16 0.0
0.8 0.16 0.0
0.8200000000000001 0.16 0.0
0.84 0.16 0.0
0.86 0.16 0.0
0.88 0.16 0.0
0.9 0.16 0.0
0.92 0.16 0.0
0.9400000000000001 0.16 0.0
0.96 0.16 0.0
0.98 0.16 0.0
1.0 0.16 0.0
0.0 0.18 0.0
0.02 0.18 0.0
0.04 0.18 0.0
0.06 0.18 0.0
0.08 0.18 0.0
0.1 0.18 0.0
0.12 0.18 0.0
0.14 0.18 0.0
0.16 0.18 0.0
0.18 0.18 0.0
0.2 0.18 0.0
0.22 0.18 0.0
0.24 0.18 0.0
0.26 0.18 0.0
0.28 0.18 0.0
0.3 0.18 0.0
0.32 0.18 0.0
0.34 0.18 0.0
0.36 0.18 0.0
0.38 0.18 0.0
0.4 0.18 0.0
0.42 0.18 0.0
0.44 0.18 0.0
0.46 0.18 0.0
0.48 0.18 0.0
0.5 0.18 0.0
0.52 0.18 0.0
0.54 0.18 0.0
0.56 0.18 0.0
0.58 0.18 0.0
0.6 0.18 0.0
0.62 0.18 0.0
0.64 0.18 0.0
0.66 0.18 0.0
0.68 0.18 0.0
0.7000000000000001 0.18 0.0
0.72 0.18 0.0
0.74 0.18 0.0
0.76 0.18 0.0
0.78 0.18 0.0
0.8 0.18 0.0
0.8200000000000001 0.18 0.0
0.84 0.18 0.0
0.86 0.18 0.0
0.88 0.18 0.0
0.9 0.18 0.0
0.92 0.18 0.0
0.9400000000000001 0.18 0.0
0.96 0.18 0.0
0.98 0.18 0.0
1.0 0.18 0.0
0.0 0.2 0.0
0.02 0.2 0.0
0.04 0.2 0.0
0.06 0.2 0.0
0.08 0.2 0.0
0.1 0.2 0.0
0.12 0.2 0.0
0.14 0.2 0.0
0.16 0.2 0.0
0.18 0.2 0.0
0.2 0.2 0.0
0.22 0.2 0.0
0.24 0.2 0.0
0.26 0.2 0.0
0.28 0.2 0.0
0.3 0.2 0.0
0.32 0.2 0.0
0.34 0.2 0.0
0.36 0.2 0.0
0.38 0.2 0.0
0.4 0.2 0.0
0.42 0.2 0.0
0.44 0.2 0.0
0.46 0.2 0.0
0.48 0.2 0.0
0.5 0.2 0.0
0.52 0.2 0.0
0.54 0.2 0.0
0.56 0.2 0.0
0.58 0.2 0.0
0.6 0.2 0.0
0.62 0.2 0.0
0.64 0.2 0.0
0.66 0.2 0.0
0.68 0.2 0.0
0.7000000000000001 0.2 0.0
0.72 0.2 0.0
0.74 0.2 0.0
0.76 0.2 0.0
0.78 0.2 0.0
0.8 0.2 0.0
0.8200000000000001 0.2 0.0
0.84 0.2 0.0
0.86 0.2 0.0
0.88 0.2 0.0
0.9 0.2 0.0
0.92 0.2 0.0
0.9400000000000001 0.2 0.0
0.96 0.2 0.0
0.98 0.2 0.0
1.0 0.2 0.0
0.0 0.22 0.0
0.02 0.22 0.0
0.04 0.22 0.0
0.06 0.22 0.0
0.08 0.22 0.0
0.1 0.22 0.0
0.12 0.22 0.0
0.14 0.22 0.0
0.16 0.22 0.0
0.18 0.22 0.0
0.2 0.22 0.0
0.22 0.22 0.0
0.24 0.22 0.0
0.26 0.22 0.0
0.28 0.22 0.0
0.3 0.22 0.0
0.32 0.22 0.0
0.34 0.22 0.0
0.36 0.22 0.0
0.38 0.22 0.0
0.4 0.22 0.0
0.42 0.22 0.0
0.44 0.22 0.0
0.46 0.22 0.0
0.48 0.22 0.0
0.5 0.22 0.0
0.52 0.22 0.0
0.54 0.22 0.0
0.56 0.22 0.0
0.58 0.22 0.0
0.6 0.22 0.0
0.62 0.22 0.0
0.64 0.22 0.0
0.66 0.22 0.0
0.68 0.22 0.0
0.7000000000000001 0.22 0.0
0.72 0.22 0.0
0.74 0.22 0.0
0.76 0.22 0.0
0.78 0.22 0.0
0.8 0.22 0.0
0.8200000000000001 0.22 0.0
0.84 0.22 0.0
0.86 0.22 0.0
0.88 0.22 0.0
0.9 0.22 0.0
0.92 0.22 0.0
0.9400000000000001 0.22 0.0
0.96 0.22 0.0
0.98 0.22 0.0
1.0 0.22 0.0
0.0 0.24 0.0
0.02 0.24 0.0
0.04 0.24 0.0
0.06 0.24 0.0
0.08 0.24 0.0
0.1 0.24 0.0
0.12 0.24 0.0
0.14 0.24 0.0
0.16 0.24 0.0
0.18 0.24 0.0
0.2 0.24 0.0
0.22 0.24 0.0
0.24 0.24 0.0
0.26 0.24 0.0
0.28 0.24 0.0
0.3 0.24 0.0
0.32 0.24 0.0
0.34 0.24 0.0
0.36 0.24 0.0
0.38 0.24 0.0
0.4 0.24 0.0
0.42 0.24 0.0
0.44 0.24 0.0
0.46 0.24 0.0
0.48 0.24 0.0
0.5 0.24 0.0
0.52 0.24 0.0
0.54 0.24 0.0
0.56 0.24 0.0
0.58 0.24 0.0
0.6 0.24 0.0
0.62 0.24 0.0
0.64 0.24 0.0
0.66 0.24 0.0
0.68 0.24 0.0
0.7000000000000001 0.24 0.0
0.72 0.24 0.0
0.74 0.24 0.0
0.76 0.24 0.0
0.78 0.24 0.0
0.8 0.24 0.0
0.8200000000000001 0.24 0.0
0.84 0.24 0.0
0.86 0.24 0.0
0.88 0.24 0.0
0.9 0.24 0.0
0.92 0.24 0.0
0.9400000000000001 0.24 0.0
0.96 0.24 0.0
0.98 0.24 0.0
1.0 0.24 0.0
0.0 0.26 0.0
0.02 0.26 0.0
0.04 0.26 0.0
0.06 0.26 0.0
0.08 0.26 0.0
0.1 0.26 0.0
0.12 0.26 0.0
0.14 0.26 0.0
0.16 0.26 0.0
0.18 0.26 0.0
0.2 0.26 0.0
0.22 0.26 0.0
0.24 0.26 0.0
0.26 0.26 0.0
0.28 0.26 0.0
0.3 0.26 0.0
0.32 0.26 0.0
0.34 0.26 0.0
0.36 0.26 0.0
0.38 0.26 0.0
0.4 0.26 0.0
0.42 0.26 0.0
0.44 0.26 0.0
0.46 0.26 0.0
0.48 0.26 0.0
[...]
CELL_DATA 2500
SCALARS u float 1
LOOKUP_TABLE u_cell_table
-0.0002645991592267004 -0.0005069162226956521 -0.0006393917544900498 -0.0006536655169319861 -0.0006169046737850681 -0.0006030985490216624 -0.000667561739415211 -0.0008428044655350332 -0.0011381545677331996 -0.0015429927654782153 -0.002032718288230923 -0.0025763803241241998 -0.0031430419287383883 -0.003706604197385698 -0.004247591230702816 -0.004753458211038579 -0.0052168992195497504 -0.005634345285807919 -0.006003821517400521 -0.006324014328978658 -0.006593058935986655 -0.006808622290726326 -0.0069674845019748405 -0.0070662138527055164 -0.007101091182999938 -0.007068978745200579 -0.006967308605234386 -0.006794939251582205 -0.006552071906257895 -0.006240962908152652 -0.0058656557957759885 -0.005432444470129224 -0.004949383649556052 -0.004426527734121692 -0.0038753117544739657 -0.0033086448362607754 -0.002740191408096387 -0.0021842683847810244 -0.0016549664983468559 -0.0011658371573760823 -0.0007289249097282784 -0.00035429173643885777 -4.8779185243776036e-05 0.0001854388126971862 0.0003545368815791189 0.000480783488185242 0.0006211875689274625 0.0009077813934109587 0.001614415662249791 0.0 -0.0004144618770103299 -0.000490016544509786 -0.0006483560377701435 -0.0009183042587925911 -0.0013202866832819696 -0.0018815352424134584 -0.0026174639525764066 -0.003526144631896889 -0.004590817831614061 -0.005782572522215886 -0.00706635598104804 -0.008404674179013765 -0.009762977339318479 -0.011110490966888886 -0.012422530335774768 -0.013678185338192747 -0.014860931069806162 -0.01595535115442593 -0.016948050722202873 -0.017824871728395017 -0.01857276161877789 -0.01917765329703073 -0.019627053820775543 -0.01990830906383072 -0.02001153121211781 -0.019927992977480675 -0.019653109682331735 -0.019184807472629496 -0.01852634652302798 -0.01768452290138964 -0.016672111579463553 -0.015505764577751675 -0.014207925356449384 -0.012804417219607752 -0.011325831883990061 -0.009804885813015985 -0.008277278657411059 -0.006778827369814655 -0.005345764442999787 -0.004011724605032486 -0.002807568856585525 -0.0017583021068507823 -0.0008822488365838157 -0.00018743957315058414 0.00033042670227057187 0.0006911487854971165 0.0009247574293023749 0.001039175990627839 0.0009027213591294775 0.0 -0.0002667089075939577 -0.00029780210526950915 -0.0005576519701303484 -0.0011574691543412862 -0.0020911339501492464 -0.0033238836171692165 -0.004809953621294071 -0.006498238626449934 -0.008336675980623138 -0.010278249027948279 -0.012281716716384542 -0.014313552759569427 -0.01634476589662748 -0.018351039542994458 -0.020308544545949398 -0.02219485772580923 -0.02398559861488198 -0.025656851622422313 -0.027182588102836407 -0.028538003111597418 -0.029697171304788474 -0.030636779940058707 -0.031333804070596105 -0.03176943030139571 -0.03192672301821139 -0.0317946011145634 -0.0313654641924544 -0.030639056514829757 -0.02961996734331336 -0.028321159065922308 -0.02676119726798915 -0.02496721045114106 -0.022971743342653526 -0.02081501028506029 -0.0185413596812846 -0.016200759856002507 -0.013844902182195334 -0.011527912386711255 -0.00930221307395667 -0.007218595461393292 -0.0053220803749522705 -0.0036515292674550574 -0.0022357363878148166 -0.001092984360588291 -0.00022873570908702595 0.0003610664927595115 0.0006821072762208558 0.0007230225229675358 0.00045460754105942826 0.0 0.0001845865588709386 -0.00010156953374211954 -0.0007707579264106513 -0.001883570029765918 -0.003407428223232407 -0.00526858559043334 -0.007391742564830026 -0.009708630254878298 -0.012163297932972725 -0.014710768225441097 -0.017317246096740506 -0.019953791485341602 -0.022595170265811173 -0.025213737812492233 -0.027781005481532783 -0.030263756302271974 -0.03262824826758121 -0.034837336066468265 -0.03685558106317434 -0.03864610667416317 -0.04017577967156161 -0.04141166234583899 -0.0423262641136432 -0.042893854076251105 -0.04309583194252552 -0.042917036191944286 -0.04235111536134468 -0.04139680319835013 -0.040063047890889165 -0.038365117881536064 -0.03632919143607884 -0.03398813383621762 -0.03138529137004374 -0.028569843612391975 -0.02559963823376585 -0.02253610631311514 -0.019446084217885552 -0.016396410592728818 -0.01345485580766175 -0.010684689216177733 -0.008144982815836263 -0.005885547384458683 -0.0039470674874101394 -0.0023572664094265623 -0.0011323101180857268 -0.0002763991697883691 0.00021438505815237337 0.00035668551748532773 0.0002125493054132431 0.0 0.00046114246331357663 -0.00022977442933705915 -0.0014364228033798612 -0.0030879903599552025 -0.005129414085076031 -0.007487043713123533 -0.010092354831225569 -0.012891878427190232 -0.01584339826802066 -0.018914303607853025 -0.022073885949839202 -0.025292236228901428 -0.02853399960260763 -0.03176118933494275 -0.034929665111667396 -0.03799483753980256 -0.04090872443596702 -0.04362614142633294 -0.04610079872235524 -0.04829120938610789 -0.05015601823810059 -0.0516599851069118 -0.05276915605197384 -0.053457165990952286 -0.05370051981791103 -0.0534851026295548 -0.052801549415367945 -0.05165166706542291 -0.05004374178660171 -0.04799851767491532 -0.04554425036653394 -0.042721901886655186 -0.03957977774309399 -0.036177676157219486 -0.03258103372727861 -0.028863897839414968 -0.02510265046156068 -0.02137785557743629 -0.017767811362508677 -0.014349503574834012 -0.011192384880768234 -0.00835883065530902 -0.005898763343072448 -0.003850319844431809 -0.002236153282062323 -0.001064427646139103 -0.00032424269737540696 2.2803157098362143e-05 6.924543513444655e-05 0.0 0.0001884449423117052 -0.0008368853270786373 -0.0024410551282727294 -0.004471552633806811 -0.0068699497772007736 -0.009588082756721376 -0.012583926467663733 -0.015820373676433876 -0.01926421826197585 -0.02287860426325932 -0.02662362308364255 -0.030451410602158106 -0.03431112083021322 -0.03814608853861267 -0.04190093734269532 -0.04551814902225685 -0.048944884650193254 -0.05212779845341605 -0.05501935876930097 -0.057571717076297144 -0.05974334829711259 -0.0614929085941936 -0.06278653918294078 -0.0635920091731051 -0.06388648290951998 -0.0636508716342704 -0.0628776703190564 -0.06156534047789194 -0.05972580847139317 -0.05737869013913487 -0.05455806683278681 -0.05130636714217785 -0.047680083650816746 -0.043743178650669304 -0.039571515267720785 -0.03524578111274353 -0.03085458068483817 -0.02648704218519329 -0.022234703118699586 -0.018184131269354177 -0.014417915030345663 -0.011007815691918313 -0.008015374882747783 -0.005486211083447516 -0.003450493565100506 -0.0019178061559413234 -0.0008748623848680252 -0.0002756006784713598 -3.0688951699641215e-05 0.0 -0.00046554923285617325 -0.0016341105104613486 -0.0034007385021646817 -0.005646250796746702 -0.008315941109260473 -0.011379189321775948 -0.014801354062070497 -0.0185420733895188 -0.022551151966503633 -0.026772353847580744 -0.03114095745204722 -0.03559105966022462 -0.040053528384904696 -0.044463823194621666 -0.04875765067566028 -0.052877573637059604 -0.056766251733012425 -0.060372649513286566 -0.06364449201357804 -0.06653533962734537 -0.06899735484843433 -0.07098948498040741 -0.07247068325484995 -0.07340879281078516 -0.0737740335218443 -0.07354808287035582 -0.07271763796084692 -0.07128326085397405 -0.0692528684459955 -0.0666499635011229 -0.06350689643463202 -0.059872113637069874 -0.055803024708822216 -0.05137195263751055 -0.046658510458838454 -0.041754072370797576 -0.03675370461179452 -0.03175915100177156 -0.026870532719575426 -0.022188043029545513 -0.017803844969538258 -0.013802907548594132 -0.010255711147654174 -0.007218673912695259 -0.004727916249138074 -0.002798818105269667 -0.001419668071778608 -0.0005489767110903396 -0.00011077862928528882 0.0 -0.0009592320760071319 -0.0021537207108545953 -0.003995646714797775 -0.006454290075030848 -0.009468330506341039 -0.012985513376417337 -0.016947611734142727 -0.02128294050984374 -0.02591349144573517 -0.0307554191986393 -0.03572814788979534 -0.04075242792676114 -0.04575790758458177 -0.05067718068633005 -0.055451526563550554 -0.060022329744282156 -0.0643370137407846 -0.06834021363904133 -0.07198138318727537 -0.07520667368283168 -0.07796807503267916 -0.080215800713931 -0.08190826030867279 -0.08300464892745922 -0.08347518160244223 -0.08329375068821257 -0.08244802246841729 -0.08093211029482895 -0.07875620103211571 -0.07593916128998605 -0.07251733305864536 -0.06853690952489132 -0.06406151754725965 -0.05916418512080017 -0.05393339488545485 -0.04846454670241934 -0.04286430616471795 -0.03724161697437865 -0.031710376127738346 -0.02638029210004359 -0.021358214069209992 -0.01673942194855304 -0.01260816242175566 -0.00902999883674722 -0.00605190033677364 -0.003695843362628846 -0.0019584813686515977 -0.0008068829670372826 -0.00018125624094366088 0.0 -0.0009208109471074333 -0.002209658624238025 -0.004264867069056085 -0.007090297494730112 -0.010595998127244639 -0.01468329027772992 -0.019249466617473097 -0.024191700191576952 -0.029407732199793545 -0.03480533775552618 -0.04029937738491656 -0.04581781188017783 -0.05129356014728001 -0.05666889612890137 -0.06188525079982001 -0.06688897445663687 -0.0716217138394153 -0.07602871779123588 -0.08005018499562586 -0.08363133926132849 -0.08671410006391521 -0.08924794807069279 -0.0911815960533359 -0.0924741262620474 -0.09308668775417002 -0.09299361510633784 -0.09217424506707789 -0.09062375613228374 -0.08834511729213863 -0.08535931718801622 -0.0816973145602527 -0.07740923881649155 -0.07255611034494322 -0.06721758026319613 -0.06148318617132942 -0.055458274905694736 -0.04925465708217454 -0.04299453612492442 -0.03680065912368091 -0.030798401130987717 -0.02510588054968063 -0.019834729183066842 -0.01508093981629078 -0.010925012341909785 -0.0074242973582474186 -0.004613156714530106 -0.0024977464656321573 -0.0010577722211087687 -0.00024691722796917845 0.0 -0.0005094321294201261 -0.0020627165122265615 -0.004542781895176342 -0.007878920734390962 -0.011945611630912952 -0.016601438393134202 -0.021716398221226618 -0.027172664515684924 -0.03287076450436806 -0.03872387532077709 -0.04466117343034822 -0.050617264113671956 -0.05653527345077845 -0.062355653337361726 -0.06802225050844395 -0.07347251105871655 -0.07864671973156552 -0.08347906290878632 -0.08790853700316968 -0.0918698607257754 -0.09530497188387714 -0.09815363688366577 -0.10036522828312056 -0.10188933254136909 -0.10268768237076994 -0.102725021438694 -0.10198099406572592 -0.10044136720188035 -0.09810957082344328 -0.0949981974720471 -0.09113976977438445 -0.08657827680383666 -0.08137866480579774 -0.07561807658395159 -0.06939355244006085 -0.06281264548295473 -0.055998924581398546 -0.04908180956541147 -0.042199765018460796 -0.03548958817534542 -0.02908765560235698 -0.023119377411901492 -0.01769928541182162 -0.012921679335364897 -0.008860544763351769 -0.0055625779874075975 -0.0030482096834285204 -0.0013087986345285904 -0.0003110332580250018 0.0 -0.0002320100607348407 -0.002141160201352629 -0.005110347903308307 -0.008943795836047794 -0.013485930993937214 -0.018587661813892223 -0.02411839378636057 -0.029973928918898614 -0.03606712554764755 -0.04232765471901455 -0.048689393918690656 -0.055092806850723645 -0.06147377679112298 -0.06777057527074024 -0.07391450090761227 -0.07984008105041622 -0.08547590923015945 -0.09075604555799185 -0.09561000453945548 -0.09997449435401234 -0.10378281436959794 -0.10697697870809049 -0.10949715440537666 -0.11129419659989506 -0.11231951203014962 -0.11253781685128258 -0.11191757393535498 -0.11044366525069396 -0.10810838000499912 -0.10492360008455007 -0.10091214424743444 -0.09611895674780002 -0.09060244649818414 -0.08444407295605258 -0.0777392097914791 -0.07060450994441878 -0.06316786911628135 -0.05557314407071637 -0.0479691076689582 -0.04051156391537532 -0.03335175452753712 -0.02663653254493266 -0.02049727172084267 -0.015049262327067188 -0.010382559503501917 -0.006562034735130368 -0.003621795420969135 -0.0015674749907686753 -0.00037588582586428046 0.0 -0.00042573327174387087 -0.002609345690449076 -0.005919994233765982 -0.010086196912265559 -0.014942737623866605 -0.020354751478494915 -0.02621276852428745 -0.032424930491585464 -0.03891522223401363 -0.04560990454025325 -0.052440063510326075 -0.059331558497426884 -0.06621333508755611 -0.07300878948598956 -0.07964661693401084 -0.08605116272187771 -0.0921537606369488 -0.09788150592964481 -0.10316883323490744 -0.10794558185302447 -0.11214925504410778 -0.11571327750914669 -0.1185800045511625 -0.12068957066927649 -0.12199337197827848 -0.12244364580967823 -0.12200708490173509 -0.12065518772210831 -0.11837765117008245 -0.11517340058249761 -0.11106331800999535 -0.10608165521122657 -0.10028749270480292 -0.09375601410293327 -0.08658794357530326 -0.07890003582918145 -0.07083175759933585 -0.06253449253579123 -0.05417507644112829 -0.04592373589936158 -0.037954771992154926 -0.030434036881768288 -0.02351786334729738 -0.017341620827144116 -0.012018560760977591 -0.007631344487447518 -0.004232539215400264 -0.0018407570860480152 -0.00044391794494098597 0.0 -0.000933104490192791 -0.0032192375952538274 -0.006655010352237974 -0.010995623159332873 -0.01607377653468015 -0.021767836804474923 -0.02797222895233439 -0.034593953681181906 -0.04154109891427963 -0.04872678772583761 -0.05606098301243874 -0.06346009475122298 -0.07083889182818115 -0.07812125265249413 -0.08522950081545551 -0.09209498071118692 -0.09864534433075045 -0.10481564133488111 -0.1105350822254168 -0.11573934810665527 -0.1203577867190025 -0.12432684150199048 -0.12757793321254637 -0.13005153942178704 -0.13168584915861709 -0.13243110438749336 -0.13223914930824962 -0.13107775645249786 -0.12892113471267314 -0.12576392560793323 -0.12161252415564454 -0.11649824053132306 -0.11046897694575465 -0.1036007862054175 -0.09598915049792926 -0.0877579808230316 -0.07904964520156754 -0.07003055688377104 -0.060879411946545794 -0.051789083567197594 -0.04295333149899629 -0.03456570275382304 -0.026806049986788746 -0.019838155523415044 -0.013798219891103376 -0.008793382309950155 -0.004894333073614246 -0.0021363468873847663 -0.0005171028351893038 0.0 -0.0012869292959860241 -0.0035800131788297613 -0.007062634946296335 -0.01156216927737654 -0.01690785099501454 -0.02295935059136417 -0.029592837381423005 -0.03668697180676449 -0.04412867717479543 -0.051807331129235724 -0.05962507842394795 -0.06748860937647451 -0.07531875099196145 -0.08303814884754018 -0.09058043964331412 -0.09787596223690766 -0.10486225180532024 -0.11146973991461372 -0.11763418594816837 -0.12328303428223963 -0.12834926400948235 -0.13275836933930568 -0.13644291235756786 -0.13933017048595492 -0.1413569833503261 -0.14245831001890477 -0.14258219347091383 -0.14167947889990168 -0.13971873957345185 -0.1366772152059584 -0.1325553661131433 -0.1273687454050424 -0.12116152580297915 -0.11399859685521127 -0.10597704489265972 -0.09721741586420056 -0.0878719320259804 -0.078113838827674 -0.06814140265063451 -0.058164836325621014 -0.048406035791783444 -0.039083791126269536 -0.030410604455402977 -0.022578288607514114 -0.015754354555393573 -0.010070788556617583 -0.0056225080295271845 -0.0024613781421335365 -0.0005978079943555465 0.0 -0.0012013807823642374 -0.0035630131251989635 -0.0072015667409671014 -0.011973422929411606 -0.01768872798425689 -0.02417320570253484 -0.03126573200907325 -0.03882167666906922 -0.046707653917969105 -0.05481146875271022 -0.06303291593262147 -0.0712911302428921 -0.079510170731827 -0.08762645656661062 -0.09557317388045945 -0.10329035215372928 -0.11070995305567563 -0.11776858308393529 -0.12439326675060011 -0.13051568589136028 -0.13605829387848745 -0.14094917956710715 -0.1451086111034707 -0.1484641644389694 -0.15093810838578037 -0.1524627294052922 -0.15296899337122244 -0.1524020504882369 -0.15071143993745864 -0.14786663284683196 -0.14384872710967492 -0.13866558631143575 -0.13234451290500254 -0.1249460894766262 -0.11655678443209855 -0.10730013377524325 -0.09732783944083513 -0.08682675647046295 -0.076007168535189 -0.06510457860129046 -0.05436484140114099 -0.044041187320895764 -0.03437765859770757 -0.025603643818021136 -0.017918707735307557 -0.01148796952670539 -0.006431633838719786 -0.002823737654855708 -0.0006879656550725761 0.0 -0.0008542495168541971 -0.0034121345950515617 -0.007359866149843358 -0.012496249752394054 -0.01861041997947458 -0.0254966733294966 -0.032976037180413385 -0.040892573329931056 -0.04912052987653093 -0.05755315302355076 -0.0661071612002524 -0.07470635293400857 -0.08328749502496924 -0.0917841177779411 -0.10013659337858509 -0.1082771597609932 -0.11614302861841355 -0.12366173689926241 -0.13076562549126616 -0.13737703984793154 -0.1434232904636965 -0.14882199166455448 -0.1534962759267267 -0.15736087689272307 -0.1603376047487256 -0.16234274240126761 -0.16330283526959696 -0.16314382215888235 -0.16180714907510774 -0.15924081972395962 -0.15541564764137342 -0.1503180166497029 -0.14396566725830487 -0.136401367304481 -0.12770700860606543 -0.11799670438950971 -0.10742737454860327 -0.09618935798279234 -0.08451157774703173 -0.07264815369942854 -0.06087723612900465 -0.04948374476047525 -0.038753123402895266 -0.02895278248060734 -0.020324323107051463 -0.013067956246746636 -0.007337356809638048 -0.0032306335548544663 -0.0007899566649609048 0.0 -0.0006698876927689664 -0.0034677258047017957 -0.007739837887287248 -0.013198120529939118 -0.019612329501337667 -0.026776652619027636 -0.03451377368895849 -0.04268369620585639 -0.05117070352761426 -0.05988480921173247 -0.06874420770055632 -0.0776803552356491 -0.0866221490611133 -0.09550647066391958 -0.10426358842198484 -0.11283056448588476 -0.12113615428527794 -0.12911520247860528 -0.13669280239600304 -0.14379910541385446 -0.1503533923078284 -0.15627924128979442 -0.16148927472380872 -0.16590067812678502 -0.1694212267197197 -0.1719651690561367 -0.1734410232244281 -0.17376790518439716 -0.17286547024646182 -0.17067073454973083 -0.1671302858471531 -0.16221737143394624 -0.1559259953976396 -0.14828744299955768 -0.13936508658898175 -0.12926865166465518 -0.11814766069749343 -0.10620099891895132 -0.09366650340032623 -0.08082351564091032 -0.06797701202751742 -0.05545258645365052 -0.043576114678126235 -0.03266375476407815 -0.02300136100311815 -0.014834693416843504 -0.008354155425803552 -0.0036899934851674955 -0.0009057209524364368 0.0 -0.0008636010311232887 -0.0038068764302434882 -0.008257084316112372 -0.013884937979728586 -0.020457367688529942 -0.02778072482917917 -0.03569800510183471 -0.04407782998298003 -0.052815088338224736 -0.06181368841187011 -0.07099177776640776 -0.08026728793218364 -0.08956918284695797 -0.09882338769855041 -0.10796608724976368 -0.11692793014668729 -0.12564788354104917 -0.13405620917882735 -0.14208890776179525 -0.14967055833534249 -0.15672940778806754 -0.16318086676608468 -0.1689430767167968 -0.17392157957487303 -0.178025222085326 -0.18115247100103246 -0.1832077158475864 -0.18408972494834558 -0.1837085575049124 -0.18197657574568554 -0.17882610575926752 -0.17420309681158874 -0.16808523794577135 -0.16047765546370743 -0.1514303086713326 -0.14103401557934467 -0.12943474896086096 -0.11682711462679085 -0.10346228050314549 -0.08963572382346895 -0.07568611279762914 -0.06197588186279297 -0.04888134288878307 -0.036768613633233777 -0.025979613047230635 -0.01680981578344507 -0.009497279312717346 -0.0042089705378885395 -0.0010376753289130624 0.0 -0.001233103046944848 -0.004185075708644743 -0.008645913200009044 -0.014322863430596829 -0.02098223385816221 -0.0284415974711473 -0.03654453349705761 -0.045159694081935764 -0.054166336736786634 -0.06346077192806572 -0.07294388769000863 -0.08253288515137214 -0.09214750040557794 -0.10172250523157213 -0.11119086248278645 -0.12049657079895931 -0.12957642333342811 -0.1383739911088695 -0.14682141531651316 -0.1548544916197475 -0.1623951091230682 -0.1693669467770624 -0.1756788891797969 -0.1812409693812341 -0.1859491705044828 -0.18970159520005503 -0.19238520419873603 -0.19389249190473948 -0.19411077395164045 -0.19293977436210827 -0.1902839600584016 -0.18607127044061716 -0.18024854798784196 -0.1728009802785035 -0.1637496882902184 -0.15317016716385262 -0.14118954992639696 -0.12800067813801536 -0.11385506066428173 -0.09906824177132309 -0.08400451166818819 -0.06907071671481554 -0.054691964316301