# vtk DataFile Version 3.0
vtk output
ASCII
DATASET STRUCTURED_GRID
DIMENSIONS 51 51 1
POINTS 2601 float
0.0 0.0 0.0
0.02 0.0 0.0
0.04 0.0 0.0
0.06 0.0 0.0
0.08 0.0 0.0
0.1 0.0 0.0
0.12 0.0 0.0
0.14 0.0 0.0
0.16 0.0 0.0
0.18 0.0 0.0
0.2 0.0 0.0
0.22 0.0 0.0
0.24 0.0 0.0
0.26 0.0 0.0
0.28 0.0 0.0
0.3 0.0 0.0
0.32 0.0 0.0
0.34 0.0 0.0
0.36 0.0 0.0
0.38 0.0 0.0
0.4 0.0 0.0
0.42 0.0 0.0
0.44 0.0 0.0
0.46 0.0 0.0
0.48 0.0 0.0
0.5 0.0 0.0
0.52 0.0 0.0
0.54 0.0 0.0
0.56 0.0 0.0
0.58 0.0 0.0
0.6 0.0 0.0
0.62 0.0 0.0
0.64 0.0 0.0
0.66 0.0 0.0
0.68 0.0 0.0
0.7000000000000001 0.0 0.0
0.72 0.0 0.0
0.74 0.0 0.0
0.76 0.0 0.0
0.78 0.0 0.0
0.8 0.0 0.0
0.8200000000000001 0.0 0.0
0.84 0.0 0.0
0.86 0.0 0.0
0.88 0.0 0.0
0.9 0.0 0.0
0.92 0.0 0.0
0.9400000000000001 0.0 0.0
0.96 0.0 0.0
0.98 0.0 0.0
1.0 0.0 0.0
0.0 0.02 0.0
0.02 0.02 0.0
0.04 0.02 0.0
0.06 0.02 0.0
0.08 0.02 0.0
0.1 0.02 0.0
0.12 0.02 0.0
0.14 0.02 0.0
0.16 0.02 0.0
0.18 0.02 0.0
0.2 0.02 0.0
0.22 0.02 0.0
0.24 0.02 0.0
0.26 0.02 0.0
0.28 0.02 0.0
0.3 0.02 0.0
0.32 0.02 0.0
0.34 0.02 0.0
0.36 0.02 0.0
0.38 0.02 0.0
0.4 0.02 0.0
0.42 0.02 0.0
0.44 0.02 0.0
0.46 0.02 0.0
0.48 0.02 0.0
0.5 0.02 0.0
0.52 0.02 0.0
0.54 0.02 0.0
0.56 0.02 0.0
0.58 0.02 0.0
0.6 0.02 0.0
0.62 0.02 0.0
0.64 0.02 0.0
0.66 0.02 0.0
0.68 0.02 0.0
0.7000000000000001 0.02 0.0
0.72 0.02 0.0
0.74 0.02 0.0
0.76 0.02 0.0
0.78 0.02 0.0
0.8 0.02 0.0
0.8200000000000001 0.02 0.0
0.84 0.02 0.0
0.86 0.02 0.0
0.88 0.02 0.0
0.9 0.02 0.0
0.92 0.02 0.0
0.9400000000000001 0.02 0.0
0.96 0.02 0.0
0.98 0.02 0.0
1.0 0.02 0.0
0.0 0.04 0.0
0.02 0.04 0.0
0.04 0.04 0.0
0.06 0.04 0.0
0.08 0.04 0.0
0.1 0.04 0.0
0.12 0.04 0.0
0.14 0.04 0.0
0.16 0.04 0.0
0.18 0.04 0.0
0.2 0.04 0.0
0.22 0.04 0.0
0.24 0.04 0.0
0.26 0.04 0.0
0.28 0.04 0.0
0.3 0.04 0.0
0.32 0.04 0.0
0.34 0.04 0.0
0.36 0.04 0.0
0.38 0.04 0.0
0.4 0.04 0.0
0.42 0.04 0.0
0.44 0.04 0.0
0.46 0.04 0.0
0.48 0.04 0.0
0.5 0.04 0.0
0.52 0.04 0.0
0.54 0.04 0.0
0.56 0.04 0.0
0.58 0.04 0.0
0.6 0.04 0.0
0.62 0.04 0.0
0.64 0.04 0.0
0.66 0.04 0.0
0.68 0.04 0.0
0.7000000000000001 0.04 0.0
0.72 0.04 0.0
0.74 0.04 0.0
0.76 0.04 0.0
0.78 0.04 0.0
0.8 0.04 0.0
0.8200000000000001 0.04 0.0
0.84 0.04 0.0
0.86 0.04 0.0
0.88 0.04 0.0
0.9 0.04 0.0
0.92 0.04 0.0
0.9400000000000001 0.04 0.0
0.96 0.04 0.0
0.98 0.04 0.0
1.0 0.04 0.0
0.0 0.06 0.0
0.02 0.06 0.0
0.04 0.06 0.0
0.06 0.06 0.0
0.08 0.06 0.0
0.1 0.06 0.0
0.12 0.06 0.0
0.14 0.06 0.0
0.16 0.06 0.0
0.18 0.06 0.0
0.2 0.06 0.0
0.22 0.06 0.0
0.24 0.06 0.0
0.26 0.06 0.0
0.28 0.06 0.0
0.3 0.06 0.0
0.32 0.06 0.0
0.34 0.06 0.0
0.36 0.06 0.0
0.38 0.06 0.0
0.4 0.06 0.0
0.42 0.06 0.0
0.44 0.06 0.0
0.46 0.06 0.0
0.48 0.06 0.0
0.5 0.06 0.0
0.52 0.06 0.0
0.54 0.06 0.0
0.56 0.06 0.0
0.58 0.06 0.0
0.6 0.06 0.0
0.62 0.06 0.0
0.64 0.06 0.0
0.66 0.06 0.0
0.68 0.06 0.0
0.7000000000000001 0.06 0.0
0.72 0.06 0.0
0.74 0.06 0.0
0.76 0.06 0.0
0.78 0.06 0.0
0.8 0.06 0.0
0.8200000000000001 0.06 0.0
0.84 0.06 0.0
0.86 0.06 0.0
0.88 0.06 0.0
0.9 0.06 0.0
0.92 0.06 0.0
0.9400000000000001 0.06 0.0
0.96 0.06 0.0
0.98 0.06 0.0
1.0 0.06 0.0
0.0 0.08 0.0
0.02 0.08 0.0
0.04 0.08 0.0
0.06 0.08 0.0
0.08 0.08 0.0
0.1 0.08 0.0
0.12 0.08 0.0
0.14 0.08 0.0
0.16 0.08 0.0
0.18 0.08 0.0
0.2 0.08 0.0
0.22 0.08 0.0
0.24 0.08 0.0
0.26 0.08 0.0
0.28 0.08 0.0
0.3 0.08 0.0
0.32 0.08 0.0
0.34 0.08 0.0
0.36 0.08 0.0
0.38 0.08 0.0
0.4 0.08 0.0
0.42 0.08 0.0
0.44 0.08 0.0
0.46 0.08 0.0
0.48 0.08 0.0
0.5 0.08 0.0
0.52 0.08 0.0
0.54 0.08 0.0
0.56 0.08 0.0
0.58 0.08 0.0
0.6 0.08 0.0
0.62 0.08 0.0
0.64 0.08 0.0
0.66 0.08 0.0
0.68 0.08 0.0
0.7000000000000001 0.08 0.0
0.72 0.08 0.0
0.74 0.08 0.0
0.76 0.08 0.0
0.78 0.08 0.0
0.8 0.08 0.0
0.8200000000000001 0.08 0.0
0.84 0.08 0.0
0.86 0.08 0.0
0.88 0.08 0.0
0.9 0.08 0.0
0.92 0.08 0.0
0.9400000000000001 0.08 0.0
0.96 0.08 0.0
0.98 0.08 0.0
1.0 0.08 0.0
0.0 0.1 0.0
0.02 0.1 0.0
0.04 0.1 0.0
0.06 0.1 0.0
0.08 0.1 0.0
0.1 0.1 0.0
0.12 0.1 0.0
0.14 0.1 0.0
0.16 0.1 0.0
0.18 0.1 0.0
0.2 0.1 0.0
0.22 0.1 0.0
0.24 0.1 0.0
0.26 0.1 0.0
0.28 0.1 0.0
0.3 0.1 0.0
0.32 0.1 0.0
0.34 0.1 0.0
0.36 0.1 0.0
0.38 0.1 0.0
0.4 0.1 0.0
0.42 0.1 0.0
0.44 0.1 0.0
0.46 0.1 0.0
0.48 0.1 0.0
0.5 0.1 0.0
0.52 0.1 0.0
0.54 0.1 0.0
0.56 0.1 0.0
0.58 0.1 0.0
0.6 0.1 0.0
0.62 0.1 0.0
0.64 0.1 0.0
0.66 0.1 0.0
0.68 0.1 0.0
0.7000000000000001 0.1 0.0
0.72 0.1 0.0
0.74 0.1 0.0
0.76 0.1 0.0
0.78 0.1 0.0
0.8 0.1 0.0
0.8200000000000001 0.1 0.0
0.84 0.1 0.0
0.86 0.1 0.0
0.88 0.1 0.0
0.9 0.1 0.0
0.92 0.1 0.0
0.9400000000000001 0.1 0.0
0.96 0.1 0.0
0.98 0.1 0.0
1.0 0.1 0.0
0.0 0.12 0.0
0.02 0.12 0.0
0.04 0.12 0.0
0.06 0.12 0.0
0.08 0.12 0.0
0.1 0.12 0.0
0.12 0.12 0.0
0.14 0.12 0.0
0.16 0.12 0.0
0.18 0.12 0.0
0.2 0.12 0.0
0.22 0.12 0.0
0.24 0.12 0.0
0.26 0.12 0.0
0.28 0.12 0.0
0.3 0.12 0.0
0.32 0.12 0.0
0.34 0.12 0.0
0.36 0.12 0.0
0.38 0.12 0.0
0.4 0.12 0.0
0.42 0.12 0.0
0.44 0.12 0.0
0.46 0.12 0.0
0.48 0.12 0.0
0.5 0.12 0.0
0.52 0.12 0.0
0.54 0.12 0.0
0.56 0.12 0.0
0.58 0.12 0.0
0.6 0.12 0.0
0.62 0.12 0.0
0.64 0.12 0.0
0.66 0.12 0.0
0.68 0.12 0.0
0.7000000000000001 0.12 0.0
0.72 0.12 0.0
0.74 0.12 0.0
0.76 0.12 0.0
0.78 0.12 0.0
0.8 0.12 0.0
0.8200000000000001 0.12 0.0
0.84 0.12 0.0
0.86 0.12 0.0
0.88 0.12 0.0
0.9 0.12 0.0
0.92 0.12 0.0
0.9400000000000001 0.12 0.0
0.96 0.12 0.0
0.98 0.12 0.0
1.0 0.12 0.0
0.0 0.14 0.0
0.02 0.14 0.0
0.04 0.14 0.0
0.06 0.14 0.0
0.08 0.14 0.0
0.1 0.14 0.0
0.12 0.14 0.0
0.14 0.14 0.0
0.16 0.14 0.0
0.18 0.14 0.0
0.2 0.14 0.0
0.22 0.14 0.0
0.24 0.14 0.0
0.26 0.14 0.0
0.28 0.14 0.0
0.3 0.14 0.0
0.32 0.14 0.0
0.34 0.14 0.0
0.36 0.14 0.0
0.38 0.14 0.0
0.4 0.14 0.0
0.42 0.14 0.0
0.44 0.14 0.0
0.46 0.14 0.0
0.48 0.14 0.0
0.5 0.14 0.0
0.52 0.14 0.0
0.54 0.14 0.0
0.56 0.14 0.0
0.58 0.14 0.0
0.6 0.14 0.0
0.62 0.14 0.0
0.64 0.14 0.0
0.66 0.14 0.0
0.68 0.14 0.0
0.7000000000000001 0.14 0.0
0.72 0.14 0.0
0.74 0.14 0.0
0.76 0.14 0.0
0.78 0.14 0.0
0.8 0.14 0.0
0.8200000000000001 0.14 0.0
0.84 0.14 0.0
0.86 0.14 0.0
0.88 0.14 0.0
0.9 0.14 0.0
0.92 0.14 0.0
0.9400000000000001 0.14 0.0
0.96 0.14 0.0
0.98 0.14 0.0
1.0 0.14 0.0
0.0 0.16 0.0
0.02 0.16 0.0
0.04 0.16 0.0
0.06 0.16 0.0
0.08 0.16 0.0
0.1 0.16 0.0
0.12 0.16 0.0
0.14 0.16 0.0
0.16 0.16 0.0
0.18 0.16 0.0
0.2 0.16 0.0
0.22 0.16 0.0
0.24 0.16 0.0
0.26 0.16 0.0
0.28 0.16 0.0
0.3 0.16 0.0
0.32 0.16 0.0
0.34 0.16 0.0
0.36 0.16 0.0
0.38 0.16 0.0
0.4 0.16 0.0
0.42 0.16 0.0
0.44 0.16 0.0
0.46 0.16 0.0
0.48 0.16 0.0
0.5 0.16 0.0
0.52 0.16 0.0
0.54 0.16 0.0
0.56 0.16 0.0
0.58 0.16 0.0
0.6 0.16 0.0
0.62 0.16 0.0
0.64 0.16 0.0
0.66 0.16 0.0
0.68 0.16 0.0
0.7000000000000001 0.16 0.0
0.72 0.16 0.0
0.74 0.16 0.0
0.76 0.16 0.0
0.78 0.16 0.0
0.8 0.16 0.0
0.8200000000000001 0.16 0.0
0.84 0.16 0.0
0.86 0.16 0.0
0.88 0.16 0.0
0.9 0.16 0.0
0.92 0.16 0.0
0.9400000000000001 0.16 0.0
0.96 0.16 0.0
0.98 0.16 0.0
1.0 0.16 0.0
0.0 0.18 0.0
0.02 0.18 0.0
0.04 0.18 0.0
0.06 0.18 0.0
0.08 0.18 0.0
0.1 0.18 0.0
0.12 0.18 0.0
0.14 0.18 0.0
0.16 0.18 0.0
0.18 0.18 0.0
0.2 0.18 0.0
0.22 0.18 0.0
0.24 0.18 0.0
0.26 0.18 0.0
0.28 0.18 0.0
0.3 0.18 0.0
0.32 0.18 0.0
0.34 0.18 0.0
0.36 0.18 0.0
0.38 0.18 0.0
0.4 0.18 0.0
0.42 0.18 0.0
0.44 0.18 0.0
0.46 0.18 0.0
0.48 0.18 0.0
0.5 0.18 0.0
0.52 0.18 0.0
0.54 0.18 0.0
0.56 0.18 0.0
0.58 0.18 0.0
0.6 0.18 0.0
0.62 0.18 0.0
0.64 0.18 0.0
0.66 0.18 0.0
0.68 0.18 0.0
0.7000000000000001 0.18 0.0
0.72 0.18 0.0
0.74 0.18 0.0
0.76 0.18 0.0
0.78 0.18 0.0
0.8 0.18 0.0
0.8200000000000001 0.18 0.0
0.84 0.18 0.0
0.86 0.18 0.0
0.88 0.18 0.0
0.9 0.18 0.0
0.92 0.18 0.0
0.9400000000000001 0.18 0.0
0.96 0.18 0.0
0.98 0.18 0.0
1.0 0.18 0.0
0.0 0.2 0.0
0.02 0.2 0.0
0.04 0.2 0.0
0.06 0.2 0.0
0.08 0.2 0.0
0.1 0.2 0.0
0.12 0.2 0.0
0.14 0.2 0.0
0.16 0.2 0.0
0.18 0.2 0.0
0.2 0.2 0.0
0.22 0.2 0.0
0.24 0.2 0.0
0.26 0.2 0.0
0.28 0.2 0.0
0.3 0.2 0.0
0.32 0.2 0.0
0.34 0.2 0.0
0.36 0.2 0.0
0.38 0.2 0.0
0.4 0.2 0.0
0.42 0.2 0.0
0.44 0.2 0.0
0.46 0.2 0.0
0.48 0.2 0.0
0.5 0.2 0.0
0.52 0.2 0.0
0.54 0.2 0.0
0.56 0.2 0.0
0.58 0.2 0.0
0.6 0.2 0.0
0.62 0.2 0.0
0.64 0.2 0.0
0.66 0.2 0.0
0.68 0.2 0.0
0.7000000000000001 0.2 0.0
0.72 0.2 0.0
0.74 0.2 0.0
0.76 0.2 0.0
0.78 0.2 0.0
0.8 0.2 0.0
0.8200000000000001 0.2 0.0
0.84 0.2 0.0
0.86 0.2 0.0
0.88 0.2 0.0
0.9 0.2 0.0
0.92 0.2 0.0
0.9400000000000001 0.2 0.0
0.96 0.2 0.0
0.98 0.2 0.0
1.0 0.2 0.0
0.0 0.22 0.0
0.02 0.22 0.0
0.04 0.22 0.0
0.06 0.22 0.0
0.08 0.22 0.0
0.1 0.22 0.0
0.12 0.22 0.0
0.14 0.22 0.0
0.16 0.22 0.0
0.18 0.22 0.0
0.2 0.22 0.0
0.22 0.22 0.0
0.24 0.22 0.0
0.26 0.22 0.0
0.28 0.22 0.0
0.3 0.22 0.0
0.32 0.22 0.0
0.34 0.22 0.0
0.36 0.22 0.0
0.38 0.22 0.0
0.4 0.22 0.0
0.42 0.22 0.0
0.44 0.22 0.0
0.46 0.22 0.0
0.48 0.22 0.0
0.5 0.22 0.0
0.52 0.22 0.0
0.54 0.22 0.0
0.56 0.22 0.0
0.58 0.22 0.0
0.6 0.22 0.0
0.62 0.22 0.0
0.64 0.22 0.0
0.66 0.22 0.0
0.68 0.22 0.0
0.7000000000000001 0.22 0.0
0.72 0.22 0.0
0.74 0.22 0.0
0.76 0.22 0.0
0.78 0.22 0.0
0.8 0.22 0.0
0.8200000000000001 0.22 0.0
0.84 0.22 0.0
0.86 0.22 0.0
0.88 0.22 0.0
0.9 0.22 0.0
0.92 0.22 0.0
0.9400000000000001 0.22 0.0
0.96 0.22 0.0
0.98 0.22 0.0
1.0 0.22 0.0
0.0 0.24 0.0
0.02 0.24 0.0
0.04 0.24 0.0
0.06 0.24 0.0
0.08 0.24 0.0
0.1 0.24 0.0
0.12 0.24 0.0
0.14 0.24 0.0
0.16 0.24 0.0
0.18 0.24 0.0
0.2 0.24 0.0
0.22 0.24 0.0
0.24 0.24 0.0
0.26 0.24 0.0
0.28 0.24 0.0
0.3 0.24 0.0
0.32 0.24 0.0
0.34 0.24 0.0
0.36 0.24 0.0
0.38 0.24 0.0
0.4 0.24 0.0
0.42 0.24 0.0
0.44 0.24 0.0
0.46 0.24 0.0
0.48 0.24 0.0
0.5 0.24 0.0
0.52 0.24 0.0
0.54 0.24 0.0
0.56 0.24 0.0
0.58 0.24 0.0
0.6 0.24 0.0
0.62 0.24 0.0
0.64 0.24 0.0
0.66 0.24 0.0
0.68 0.24 0.0
0.7000000000000001 0.24 0.0
0.72 0.24 0.0
0.74 0.24 0.0
0.76 0.24 0.0
0.78 0.24 0.0
0.8 0.24 0.0
0.8200000000000001 0.24 0.0
0.84 0.24 0.0
0.86 0.24 0.0
0.88 0.24 0.0
0.9 0.24 0.0
0.92 0.24 0.0
0.9400000000000001 0.24 0.0
0.96 0.24 0.0
0.98 0.24 0.0
1.0 0.24 0.0
0.0 0.26 0.0
0.02 0.26 0.0
0.04 0.26 0.0
0.06 0.26 0.0
0.08 0.26 0.0
0.1 0.26 0.0
0.12 0.26 0.0
0.14 0.26 0.0
0.16 0.26 0.0
0.18 0.26 0.0
0.2 0.26 0.0
0.22 0.26 0.0
0.24 0.26 0.0
0.26 0.26 0.0
0.28 0.26 0.0
0.3 0.26 0.0
0.32 0.26 0.0
0.34 0.26 0.0
0.36 0.26 0.0
0.38 0.26 0.0
0.4 0.26 0.0
0.42 0.26 0.0
0.44 0.26 0.0
0.46 0.26 0.0
0.48 0.26 0.0
[...]
CELL_DATA 2500
SCALARS u float 1
LOOKUP_TABLE u_cell_table
0.00015063323543697477 -0.0001259071262754696 -0.00040090579959854136 -0.0005983789176051965 -0.0007356464080030228 -0.0008491300774437383 -0.0009774548912478234 -0.0011551492832276274 -0.0014060126228963602 -0.00173972382850675 -0.0021520996305912496 -0.002628578225340455 -0.003148487384771046 -0.0036895693213547342 -0.004230960298642621 -0.004755305857071663 -0.005249077171956215 -0.005702541535183291 -0.006108658569936696 -0.006462440181673166 -0.006759810239007806 -0.006997329384048064 -0.007171566075098003 -0.007279352790496666 -0.007317594721306013 -0.0072838417859064945 -0.007176294114671839 -0.006994460832170577 -0.006739180590662776 -0.006413204756686927 -0.006021091066957803 -0.005569574469686292 -0.005067238347289645 -0.0045246327995346275 -0.003953761255525962 -0.0033680236310472864 -0.002781595306272031 -0.0022092143753920475 -0.0016654220041069092 -0.0011641450022676953 -0.0007177899137797209 -0.0003366221648171369 -2.7562811741412387e-05 0.0002073524522220135 0.00037458186874104354 0.0004968958304380054 0.0006320479934655236 0.0009132195108392015 0.0016157407751385645 0.0 -0.00011775270232515641 -0.0002468066201109185 -0.0005230585104008297 -0.0009192134880591222 -0.0014329300531170128 -0.002076183374222934 -0.0028582196384573178 -0.00378054690857315 -0.004836277215129581 -0.006009057667890547 -0.007275562264306628 -0.00860706585504947 -0.009973570216013817 -0.011345025060443254 -0.012694283805666442 -0.013996411183354401 -0.015230117446639302 -0.01637578483128959 -0.017416393932474017 -0.018335383378388366 -0.019117902399022026 -0.019749086432255078 -0.02021585352317012 -0.020505633784326623 -0.020608535176739082 -0.02051632686635231 -0.02022470469613277 -0.01973232006620247 -0.01904291286863624 -0.018164205703218868 -0.017109685272553445 -0.015897188625358376 -0.0145501603808591 -0.013095861152738184 -0.011566080791354728 -0.009995041876612466 -0.008419626902887417 -0.00687703759380889 -0.005404537675434117 -0.004036896473302541 -0.0028056765510198617 -0.0017365024355327115 -0.000847767522616432 -0.00014734026019084146 0.0003698232906364429 0.0007246059654332801 0.0009487800026037232 0.0010525434034593679 0.0009071494637784113 0.0 -0.00035035574376019493 -0.0004123149639823116 -0.0006879887989916055 -0.0012796471034825928 -0.0021908542248128154 -0.0034032619343045147 -0.004883417661998897 -0.006587105019923141 -0.008464376957796577 -0.010466170775108839 -0.012546435915894954 -0.014665255509592712 -0.016787334487482132 -0.018882813086634 -0.020924042067752894 -0.02288609958084893 -0.024743667712711928 -0.026472414499134272 -0.02804661140566785 -0.029441445994845456 -0.030631240191718607 -0.03159234046632638 -0.03230165410905708 -0.03273978920733979 -0.032889707452276096 -0.03273987955579562 -0.03228291694227253 -0.031518551975241886 -0.030452116532747906 -0.029097145166545796 -0.027473541021962387 -0.025609594949380164 -0.023539708506988898 -0.021305703368330715 -0.01895407766640916 -0.01653658617195211 -0.01410707925731354 -0.011721383839423193 -0.00943382517902631 -0.007296525432907807 -0.005355817015148651 -0.003651167562285134 -0.0022117584670065566 -0.001055490510810197 -0.00018707780367332132 0.00039910843913312 0.0007108740770365646 0.0007398539803662074 0.00046052139608687785 0.0 -0.00013243963642196844 -0.0003525573989970772 -0.0009129498007941523 -0.0019276316084839073 -0.0033840254092235974 -0.005225279369834098 -0.007382257148979962 -0.009781757175131377 -0.012355510227750223 -0.015043343895236481 -0.01779660791034195 -0.020574665727486022 -0.02334446730057799 -0.02607497259621669 -0.02873725892384062 -0.03130006760676805 -0.03373196242873883 -0.03599834809647544 -0.03806508988948869 -0.039896222532228215 -0.04145814617145166 -0.04271746548082801 -0.04364530962671386 -0.04421514723435415 -0.04440707035428497 -0.04420556882208003 -0.04360365722102269 -0.04260055019395834 -0.04120545048340391 -0.039434990435639077 -0.037316449465739907 -0.034884800125178916 -0.03218514512033867 -0.029269259572828152 -0.02619712280161658 -0.023032939747706413 -0.01984574520570243 -0.01670500098683337 -0.013680395727316462 -0.010837281567780462 -0.008235967456056823 -0.005927418692087057 -0.0039525496361740905 -0.0023390357885930543 -0.0011020228374781648 -0.0002442052825140825 0.0002408616526619801 0.0003730082272850319 0.00021854073531601351 0.0 0.0002435361104356233 -0.00032865333763171733 -0.0014015336973273607 -0.002982079566530408 -0.005027019371310195 -0.00745784842664062 -0.010192116939096637 -0.013156286010871225 -0.0162872891213127 -0.019534829168666508 -0.02285636817376577 -0.026215991244339924 -0.029577815568310385 -0.03290642645220912 -0.03616221335227669 -0.03930456611721903 -0.04228884313441105 -0.04507104741155692 -0.04760516895653915 -0.04984819166592963 -0.05175724015932894 -0.053294569025388795 -0.05442456758555195 -0.05511875012550479 -0.05535277536500459 -0.05511140578027606 -0.05438554951296404 -0.05317700998304846 -0.051495419237459414 -0.0493625126081951 -0.04680876163724401 -0.04387689517069757 -0.040618050800657036 -0.0370943164351414 -0.033374296692591406 -0.029534564007355497 -0.025654676897084505 -0.021817604772613193 -0.01810442707816541 -0.01459399709236072 -0.011357733946411656 -0.0084589678569972 -0.005948435336132607 -0.0038640123388696762 -0.0022277088395987474 -0.0010459203873924552 -0.0003053861244444818 3.575869763755141e-05 7.435206594460226e-05 0.0 0.00027584466828017016 -0.0006943515404940301 -0.0022825960659771266 -0.0043700107445098935 -0.006892329880632838 -0.009778152843168497 -0.012961075641327993 -0.01638399187608497 -0.020000095685445123 -0.023766306581381923 -0.02764229391165108 -0.031584160120624635 -0.035546422541290805 -0.03947803363227432 -0.043327161593958684 -0.047038236276281745 -0.050557612921157555 -0.05383022454608234 -0.05680512217040806 -0.05943153688784866 -0.061664331066666266 -0.06345990137501799 -0.06478180405322213 -0.06559683523744557 -0.06588085205786011 -0.06561506146855951 -0.06479181353366065 -0.06341093813368545 -0.061485189537088814 -0.059036410581005005 -0.056100297585283426 -0.052722167314982374 -0.04896073856705324 -0.04488332177564683 -0.0405684052106553 -0.036100214454972496 -0.03157006484625306 -0.02707043290816622 -0.02269524581806709 -0.018533802630870566 -0.014670357466142285 -0.011178398928097018 -0.008120047821458603 -0.005541278193936561 -0.0034714008050523255 -0.0019186657484782169 -0.0008672585670757309 -0.00026794299245149204 -2.702861102953826e-05 0.0 -0.00019334151301270087 -0.0014346447956437387 -0.0033431737573264633 -0.005760426688452723 -0.008615454228936992 -0.011858594596678543 -0.015442518093501592 -0.01932305188871601 -0.023453445643364206 -0.02778448314886863 -0.03225965372643582 -0.036819455025936615 -0.04139888304091037 -0.04593384809557632 -0.05035833198759367 -0.054610539822748785 -0.05862857517380056 -0.06235595341702056 -0.06573637617014355 -0.06871927964461369 -0.07125461675074596 -0.0732989284160831 -0.07481056597050342 -0.0757562597253525 -0.07610675092905009 -0.07584352874646283 -0.07495464951827426 -0.07344125576183312 -0.07131334427387787 -0.06859571100230774 -0.06532343826338724 -0.06154692682636983 -0.05732687893685295 -0.052738121967028456 -0.04786393860195373 -0.04279851815651992 -0.03764065037133581 -0.03249483708433602 -0.027464565919220092 -0.022652321984377704 -0.018152861446488186 -0.014052570762660792 -0.010423324339510437 -0.007321666031952358 -0.00478351806951739 -0.0028227861642977276 -0.0014257573350119205 -0.0005477564180614965 -0.00010891783285123675 0.0 -0.0008169995025370192 -0.002157277773348693 -0.004194167114196521 -0.006827482330497224 -0.009985028727278125 -0.01361751716537932 -0.017675594767817663 -0.02210063778858419 -0.026827420510982768 -0.03178178203581878 -0.03688738178764585 -0.04206462888994353 -0.04723829567003326 -0.05233431127327793 -0.057285751886419344 -0.06202706582472946 -0.06649913434020821 -0.07064257505766576 -0.0744032776965367 -0.0777261017569135 -0.08056143225315487 -0.08285961518061764 -0.08457830171091271 -0.08567743196321571 -0.08612688898073702 -0.08590175017558657 -0.0849898239428286 -0.08338695313574522 -0.08110409619157079 -0.07816249674970965 -0.07459998385847676 -0.0704657874614859 -0.06582571403316739 -0.060756382468655494 -0.055348985237890315 -0.04970281504136909 -0.04392747126622008 -0.03813572513720748 -0.032444244287501076 -0.026966081812502596 -0.021810264963510344 -0.017074470854517847 -0.012844058626299122 -0.00918557235534196 -0.006145627264713485 -0.0037454527939101683 -0.0019796889572502615 -0.0008128206489030615 -0.00018134777801885631 0.0 -0.0010820450712541322 -0.0024746398507381855 -0.0046394708743888735 -0.007549820378636057 -0.011118342020927211 -0.015265324980600055 -0.019907180017766677 -0.024954538990922315 -0.030311345712671137 -0.03588355308234079 -0.04157879890510058 -0.047314052633926115 -0.05301121250155127 -0.05860205214917065 -0.06402063763734422 -0.06920763022757133 -0.07410225344507149 -0.07864788200712398 -0.0827849537285983 -0.08645810826723274 -0.0896100332497294 -0.09218955398415588 -0.0941460097477395 -0.09543768241294838 -0.09602642701761885 -0.09588604494657924 -0.0949970483814833 -0.09335471579755511 -0.09096389793104219 -0.08784648616384008 -0.08403608513759983 -0.07958454301377696 -0.07455622316047614 -0.06903320413032504 -0.06310888012343963 -0.05689150475233618 -0.050496964350074044 -0.044050519970803184 -0.0376788348630979 -0.03151008034296509 -0.02566566301634382 -0.020259248409297218 -0.015388963544469517 -0.011136090350173034 -0.00755853476100388 -0.004689873240695293 -0.0025350171941012907 -0.0010712066152698655 -0.00024906885882318463 0.0 -0.0008234508675381037 -0.0023851600046739343 -0.004860868542925607 -0.00821287205387387 -0.012325470539717151 -0.017070777915680322 -0.022326032148312795 -0.027971037063070327 -0.03389548728157616 -0.03999787663459933 -0.04619171889135805 -0.05239894897213361 -0.05855305218071829 -0.06458955540920093 -0.07044963594829276 -0.07607118470706384 -0.08139478253066962 -0.08635623445652804 -0.09089445935138601 -0.0949448887088719 -0.09844823350456991 -0.10134418383329752 -0.10358041844463528 -0.10510646313346178 -0.10588268852914529 -0.10587438480313122 -0.10506061040541517 -0.10342851667671941 -0.10098185457877674 -0.09773544489755491 -0.09372301624893443 -0.0889915523092173 -0.08360801011098161 -0.07765317069502906 -0.07122674879821703 -0.06444038623353429 -0.05742076155170703 -0.050301543807132934 -0.043224399405790995 -0.03633011406172186 -0.029757874879015805 -0.023636276188856387 -0.0180817187646516 -0.013190354399275243 -0.009036646542553095 -0.005667442530921219 -0.0031019998384829005 -0.0013299777644350938 -0.0003152470273625434 0.0 -0.0003904250300884029 -0.0022715926808537235 -0.0052275763716399075 -0.009116344831341442 -0.013786468459907634 -0.019080265046442984 -0.02485235941107171 -0.030978699865001697 -0.03735232643594424 -0.0438863250224844 -0.05050438339992894 -0.057141798114116855 -0.06373444541834697 -0.07022214528522835 -0.07653954758253724 -0.08262290921154919 -0.08840265795305331 -0.09381206286363955 -0.09878020684565252 -0.10324119815635432 -0.10712703548255759 -0.11037690724716562 -0.1129301038288804 -0.11473538794392772 -0.1157442385930274 -0.11592028605879501 -0.11523303801023496 -0.11366724700452006 -0.11121708363536728 -0.10789514968283388 -0.10372686815793904 -0.09875868892827643 -0.09305228554034163 -0.08669136587659187 -0.07977515896699008 -0.07242321573379935 -0.06476772382834539 -0.05695586878990424 -0.04914083834768354 -0.04148179142251466 -0.03413400609928105 -0.027247156944596666 -0.02095568379138664 -0.015376599035963681 -0.010601531336950545 -0.0066955408020131476 -0.0036924788137202126 -0.001596458444584217 -0.000382197966271712 0.0 -0.0002926581591717939 -0.0025150185018970542 -0.0059272741280133765 -0.01026891491418844 -0.015364336112813903 -0.021053444496181607 -0.027200858450455632 -0.03369462650996201 -0.04044620250495902 -0.04737806685475914 -0.05442296248750416 -0.06151230533161562 -0.06858005564796352 -0.07555420103584787 -0.08236461450319181 -0.0889358121508344 -0.09519617261379448 -0.10107026815105541 -0.10648812837740895 -0.11137701615013647 -0.11567070669855012 -0.11930129136054832 -0.12220871969003516 -0.12433311017977283 -0.12562461138080047 -0.12603642180601599 -0.12553484369437667 -0.12409302098837366 -0.1217009398544967 -0.11835972833251145 -0.11409120998791766 -0.10893240447214962 -0.10294404585449493 -0.09620470916197488 -0.08881753802848893 -0.08090330828679075 -0.07260461645707046 -0.06407734393234989 -0.0554919048400858 -0.04702311356606113 -0.03884880415559498 -0.031138921216898915 -0.02405265639466516 -0.017728330995462463 -0.01228077507266585 -0.007793919673850754 -0.00432022310207661 -0.001877651382395012 -0.0004523008594670973 0.0 -0.0006870623625243456 -0.0031144790760151927 -0.006776085181744918 -0.011377453139691188 -0.01673177759325445 -0.02269626745835977 -0.029150848696328523 -0.03599785656354583 -0.04314974286570062 -0.05052776003578275 -0.05805100479694764 -0.06564149938803113 -0.07321681070274458 -0.08069887753520007 -0.08800674335536442 -0.09506574317360685 -0.10179876469425214 -0.10813505173605246 -0.11400064286542595 -0.11932737584231694 -0.12404353119488057 -0.12808344563470161 -0.13137888836892392 -0.13386925280071693 -0.1354938080482326 -0.13620227158308745 -0.13594795734055282 -0.1346985229268185 -0.1324299650180468 -0.12913726546656212 -0.12482900973555772 -0.11953745056832499 -0.11331324212574935 -0.10623415614023754 -0.09839913822542706 -0.0899347036665919 -0.08098742643116444 -0.07172713721441404 -0.062337278024928895 -0.0530146110216484 -0.04395769979588193 -0.03536385410196137 -0.02741709794781209 -0.02028412077801367 -0.014103933156082512 -0.008985079102960794 -0.004999185874611927 -0.002181140695276125 -0.000527597006694191 0.0 -0.0012239041754147305 -0.003690445347604961 -0.007408092512471889 -0.012140785797832836 -0.017701596597233256 -0.023948276444157868 -0.03076187383877339 -0.038031737408980436 -0.04565582226287075 -0.0535318965762899 -0.061564164714911246 -0.06965704078265969 -0.07772431522522945 -0.08568123038908837 -0.09345277917231841 -0.10096337102632676 -0.10814469870599114 -0.11492472812185733 -0.12123634442220138 -0.12700695473519535 -0.1321682140425358 -0.13664656741287076 -0.14037374463059624 -0.1432782123152262 -0.1452961121222673 -0.14636364907132254 -0.1464283187100201 -0.14544232325193238 -0.14337397430110022 -0.14020211522877202 -0.1359274124649646 -0.13056746111847128 -0.12416733206100256 -0.11679462606361633 -0.10854824752719106 -0.09955231653588588 -0.0899619192302022 -0.07995476153804326 -0.06973290560720345 -0.059511637135234524 -0.04951713583966184 -0.039973267433518776 -0.031096562674151226 -0.023083075900045352 -0.016103244026813776 -0.010291674264415518 -0.005744489297167376 -0.002514154323604859 -0.0006104007897635164 0.0 -0.0014102220625074524 -0.003879755606365194 -0.007649672288888635 -0.012557059654367897 -0.018406794504746034 -0.025034407344344912 -0.032291246154499555 -0.04004092311942634 -0.04815241580372293 -0.05650820927850833 -0.06499876604435223 -0.07353092485741848 -0.08201842712159825 -0.09038841465590468 -0.09856912759874112 -0.10649659826302198 -0.11410237093512834 -0.12132194221121653 -0.12808362881524837 -0.1343185480968662 -0.13995048217795422 -0.14490665846000225 -0.14910837129230403 -0.15248212498999156 -0.15495108827304457 -0.1564465310141214 -0.15690037271014334 -0.15625697721481815 -0.15446699898553737 -0.15149947909517433 -0.14733691964834067 -0.14198728825858464 -0.13547979976588184 -0.1278759398263992 -0.1192648887711714 -0.10977216915070809 -0.0995532376218273 -0.08879816778403515 -0.07772205417980103 -0.06656468110806836 -0.055577392930438986 -0.04501817021522944 -0.035136431156163765 -0.026165853960771916 -0.018310276100086908 -0.011737717662523562 -0.0065707749092124 -0.002884470955368226 -0.0007027144507450703 0.0 -0.001124927256719132 -0.003707881344026632 -0.007692712469572849 -0.012910741277365871 -0.019151838411562008 -0.02621345215893317 -0.033915903581189344 -0.04209578372690909 -0.05061311425415926 -0.059345441900769055 -0.06819425431648854 -0.07707318100801747 -0.08591208315563179 -0.09464285834438171 -0.1032051574885875 -0.11153337164448714 -0.11956522708706147 -0.12723031851555497 -0.13446047535597466 -0.1411790539427568 -0.14731192012265357 -0.15277716294052207 -0.157496262133886 -0.16138444368248647 -0.16436209065212193 -0.1663461765601205 -0.16726213052783248 -0.16703674107590674 -0.1656106166279647 -0.16293274116277381 -0.1589734155902952 -0.15372025616293933 -0.14719103033128322 -0.1394302921341437 -0.13052086338658142 -0.12057959916481051 -0.10976563453280423 -0.09827332283910976 -0.08633526433179511 -0.07421084875950806 -0.06218309691559125 -0.050542910077368344 -0.03958098875824698 -0.02957041788107615 -0.02075731897909905 -0.013346157614059035 -0.007493434464572466 -0.0032993740906112753 -0.0008068566146885612 0.0 -0.0007348708310508936 -0.003550944160105223 -0.007879725276202901 -0.013468072168801887 -0.02008259346924416 -0.027502288282437313 -0.03553130915152213 -0.04400869011840034 -0.05280047530504405 -0.061802830161104536 -0.07092771345554723 -0.08010465801061038 -0.08926541832456363 -0.09834936819792243 -0.1072905533470564 -0.11602683563043412 -0.12448840704515861 -0.13260850295940588 -0.14031207499966844 -0.14752676377077198 -0.1541715685319702 -0.16016785011662768 -0.16542846875272224 -0.16986901166339047 -0.17339796350954773 -0.175928426936955 -0.17736981196421323 -0.1776402931753423 -0.1766603803443806 -0.17436623775764679 -0.1707052536558003 -0.16565001919410496 -0.15919551723817396 -0.15137291883693932 -0.1422472097840337 -0.13192906309452135 -0.12057080097342154 -0.1083738202437801 -0.0955803317613652 -0.08247392941491115 -0.06936543407367778 -0.0565859932787621 -0.044468015460688175 -0.033333439621546 -0.023474072246878808 -0.01514037414773447 -0.00852691812660781 -0.0037666375931548982 -0.000924821271570261 0.0 -0.0006946198456806575 -0.0037290485077573305 -0.008341799556061518 -0.01419192976747054 -0.02103296262150227 -0.028647848180831766 -0.036856948659426514 -0.0455135997031056 -0.05450474277472139 -0.06373461571132939 -0.07312506241131655 -0.08260034784094304 -0.09209314581865649 -0.10153244216268507 -0.11085339583825088 -0.11998586868458665 -0.12886516015454796 -0.13741982034992653 -0.14558228397026268 -0.15327634602008824 -0.16042785409118437 -0.16695260779689283 -0.17276736589813518 -0.1777787444454901 -0.1818947215242488 -0.1850149831628735 -0.1870431459701794 -0.1878789880352186 -0.18743166352694224 -0.185614202489866 -0.18235788076082904 -0.17760908645744225 -0.1713445548323214 -0.16357001271575536 -0.15433507822615353 -0.14373197232601456 -0.13190764162702268 -0.1190596116029331 -0.10544195807200422 -0.09135502333686801 -0.07714243952594135 -0.06317318652529431 -0.04982990361767632 -0.037485839130680106 -0.02648921088667993 -0.017141672716273707 -0.009686083476617428 -0.004293418504385263 -0.0010589460811157715 0.0 -0.0010629568356729448 -0.004171133787905642 -0.00886141451846418 -0.01478723169614081 -0.02169798294820799 -0.029397493471844463 -0.03772216977048629 -0.04654078183004566 -0.055739234597489466 -0.06522099679511081 -0.0748935312754573 -0.08467560930004085 -0.0944865045326806 -0.10425629201644397 -0.11391405143092667 -0.12339801381828586 -0.13264215731293902 -0.14158615641821679 -0.15016160250976862 -0.1583023551034407 -0.16593132830135032 -0.1729713744134203 -0.17933303985474872 -0.1849259161224463 -0.18964765659811605 -0.1933958844867135 -0.19605888927491877 -0.19752841250597283 -0.19769257241193214 -0.1964499582634226 -0.19370528795567363 -0.18938505969336816 -0.1834360343318464 -0.17584201741433678 -0.16662426480520776 -0.15585765264497797 -0.14367051388050367 -0.13025674355245614 -0.1158710017041543 -0.10083228124858133 -0.08551040028345268 -0.07031804298098984 -0.05568769978568901 -0.042054114111786785