# vtk DataFile Version 3.0
vtk output
ASCII
DATASET STRUCTURED_GRID
DIMENSIONS 51 51 1
POINTS 2601 float
0.0 0.0 0.0
0.02 0.0 0.0
0.04 0.0 0.0
0.06 0.0 0.0
0.08 0.0 0.0
0.1 0.0 0.0
0.12 0.0 0.0
0.14 0.0 0.0
0.16 0.0 0.0
0.18 0.0 0.0
0.2 0.0 0.0
0.22 0.0 0.0
0.24 0.0 0.0
0.26 0.0 0.0
0.28 0.0 0.0
0.3 0.0 0.0
0.32 0.0 0.0
0.34 0.0 0.0
0.36 0.0 0.0
0.38 0.0 0.0
0.4 0.0 0.0
0.42 0.0 0.0
0.44 0.0 0.0
0.46 0.0 0.0
0.48 0.0 0.0
0.5 0.0 0.0
0.52 0.0 0.0
0.54 0.0 0.0
0.56 0.0 0.0
0.58 0.0 0.0
0.6 0.0 0.0
0.62 0.0 0.0
0.64 0.0 0.0
0.66 0.0 0.0
0.68 0.0 0.0
0.7000000000000001 0.0 0.0
0.72 0.0 0.0
0.74 0.0 0.0
0.76 0.0 0.0
0.78 0.0 0.0
0.8 0.0 0.0
0.8200000000000001 0.0 0.0
0.84 0.0 0.0
0.86 0.0 0.0
0.88 0.0 0.0
0.9 0.0 0.0
0.92 0.0 0.0
0.9400000000000001 0.0 0.0
0.96 0.0 0.0
0.98 0.0 0.0
1.0 0.0 0.0
0.0 0.02 0.0
0.02 0.02 0.0
0.04 0.02 0.0
0.06 0.02 0.0
0.08 0.02 0.0
0.1 0.02 0.0
0.12 0.02 0.0
0.14 0.02 0.0
0.16 0.02 0.0
0.18 0.02 0.0
0.2 0.02 0.0
0.22 0.02 0.0
0.24 0.02 0.0
0.26 0.02 0.0
0.28 0.02 0.0
0.3 0.02 0.0
0.32 0.02 0.0
0.34 0.02 0.0
0.36 0.02 0.0
0.38 0.02 0.0
0.4 0.02 0.0
0.42 0.02 0.0
0.44 0.02 0.0
0.46 0.02 0.0
0.48 0.02 0.0
0.5 0.02 0.0
0.52 0.02 0.0
0.54 0.02 0.0
0.56 0.02 0.0
0.58 0.02 0.0
0.6 0.02 0.0
0.62 0.02 0.0
0.64 0.02 0.0
0.66 0.02 0.0
0.68 0.02 0.0
0.7000000000000001 0.02 0.0
0.72 0.02 0.0
0.74 0.02 0.0
0.76 0.02 0.0
0.78 0.02 0.0
0.8 0.02 0.0
0.8200000000000001 0.02 0.0
0.84 0.02 0.0
0.86 0.02 0.0
0.88 0.02 0.0
0.9 0.02 0.0
0.92 0.02 0.0
0.9400000000000001 0.02 0.0
0.96 0.02 0.0
0.98 0.02 0.0
1.0 0.02 0.0
0.0 0.04 0.0
0.02 0.04 0.0
0.04 0.04 0.0
0.06 0.04 0.0
0.08 0.04 0.0
0.1 0.04 0.0
0.12 0.04 0.0
0.14 0.04 0.0
0.16 0.04 0.0
0.18 0.04 0.0
0.2 0.04 0.0
0.22 0.04 0.0
0.24 0.04 0.0
0.26 0.04 0.0
0.28 0.04 0.0
0.3 0.04 0.0
0.32 0.04 0.0
0.34 0.04 0.0
0.36 0.04 0.0
0.38 0.04 0.0
0.4 0.04 0.0
0.42 0.04 0.0
0.44 0.04 0.0
0.46 0.04 0.0
0.48 0.04 0.0
0.5 0.04 0.0
0.52 0.04 0.0
0.54 0.04 0.0
0.56 0.04 0.0
0.58 0.04 0.0
0.6 0.04 0.0
0.62 0.04 0.0
0.64 0.04 0.0
0.66 0.04 0.0
0.68 0.04 0.0
0.7000000000000001 0.04 0.0
0.72 0.04 0.0
0.74 0.04 0.0
0.76 0.04 0.0
0.78 0.04 0.0
0.8 0.04 0.0
0.8200000000000001 0.04 0.0
0.84 0.04 0.0
0.86 0.04 0.0
0.88 0.04 0.0
0.9 0.04 0.0
0.92 0.04 0.0
0.9400000000000001 0.04 0.0
0.96 0.04 0.0
0.98 0.04 0.0
1.0 0.04 0.0
0.0 0.06 0.0
0.02 0.06 0.0
0.04 0.06 0.0
0.06 0.06 0.0
0.08 0.06 0.0
0.1 0.06 0.0
0.12 0.06 0.0
0.14 0.06 0.0
0.16 0.06 0.0
0.18 0.06 0.0
0.2 0.06 0.0
0.22 0.06 0.0
0.24 0.06 0.0
0.26 0.06 0.0
0.28 0.06 0.0
0.3 0.06 0.0
0.32 0.06 0.0
0.34 0.06 0.0
0.36 0.06 0.0
0.38 0.06 0.0
0.4 0.06 0.0
0.42 0.06 0.0
0.44 0.06 0.0
0.46 0.06 0.0
0.48 0.06 0.0
0.5 0.06 0.0
0.52 0.06 0.0
0.54 0.06 0.0
0.56 0.06 0.0
0.58 0.06 0.0
0.6 0.06 0.0
0.62 0.06 0.0
0.64 0.06 0.0
0.66 0.06 0.0
0.68 0.06 0.0
0.7000000000000001 0.06 0.0
0.72 0.06 0.0
0.74 0.06 0.0
0.76 0.06 0.0
0.78 0.06 0.0
0.8 0.06 0.0
0.8200000000000001 0.06 0.0
0.84 0.06 0.0
0.86 0.06 0.0
0.88 0.06 0.0
0.9 0.06 0.0
0.92 0.06 0.0
0.9400000000000001 0.06 0.0
0.96 0.06 0.0
0.98 0.06 0.0
1.0 0.06 0.0
0.0 0.08 0.0
0.02 0.08 0.0
0.04 0.08 0.0
0.06 0.08 0.0
0.08 0.08 0.0
0.1 0.08 0.0
0.12 0.08 0.0
0.14 0.08 0.0
0.16 0.08 0.0
0.18 0.08 0.0
0.2 0.08 0.0
0.22 0.08 0.0
0.24 0.08 0.0
0.26 0.08 0.0
0.28 0.08 0.0
0.3 0.08 0.0
0.32 0.08 0.0
0.34 0.08 0.0
0.36 0.08 0.0
0.38 0.08 0.0
0.4 0.08 0.0
0.42 0.08 0.0
0.44 0.08 0.0
0.46 0.08 0.0
0.48 0.08 0.0
0.5 0.08 0.0
0.52 0.08 0.0
0.54 0.08 0.0
0.56 0.08 0.0
0.58 0.08 0.0
0.6 0.08 0.0
0.62 0.08 0.0
0.64 0.08 0.0
0.66 0.08 0.0
0.68 0.08 0.0
0.7000000000000001 0.08 0.0
0.72 0.08 0.0
0.74 0.08 0.0
0.76 0.08 0.0
0.78 0.08 0.0
0.8 0.08 0.0
0.8200000000000001 0.08 0.0
0.84 0.08 0.0
0.86 0.08 0.0
0.88 0.08 0.0
0.9 0.08 0.0
0.92 0.08 0.0
0.9400000000000001 0.08 0.0
0.96 0.08 0.0
0.98 0.08 0.0
1.0 0.08 0.0
0.0 0.1 0.0
0.02 0.1 0.0
0.04 0.1 0.0
0.06 0.1 0.0
0.08 0.1 0.0
0.1 0.1 0.0
0.12 0.1 0.0
0.14 0.1 0.0
0.16 0.1 0.0
0.18 0.1 0.0
0.2 0.1 0.0
0.22 0.1 0.0
0.24 0.1 0.0
0.26 0.1 0.0
0.28 0.1 0.0
0.3 0.1 0.0
0.32 0.1 0.0
0.34 0.1 0.0
0.36 0.1 0.0
0.38 0.1 0.0
0.4 0.1 0.0
0.42 0.1 0.0
0.44 0.1 0.0
0.46 0.1 0.0
0.48 0.1 0.0
0.5 0.1 0.0
0.52 0.1 0.0
0.54 0.1 0.0
0.56 0.1 0.0
0.58 0.1 0.0
0.6 0.1 0.0
0.62 0.1 0.0
0.64 0.1 0.0
0.66 0.1 0.0
0.68 0.1 0.0
0.7000000000000001 0.1 0.0
0.72 0.1 0.0
0.74 0.1 0.0
0.76 0.1 0.0
0.78 0.1 0.0
0.8 0.1 0.0
0.8200000000000001 0.1 0.0
0.84 0.1 0.0
0.86 0.1 0.0
0.88 0.1 0.0
0.9 0.1 0.0
0.92 0.1 0.0
0.9400000000000001 0.1 0.0
0.96 0.1 0.0
0.98 0.1 0.0
1.0 0.1 0.0
0.0 0.12 0.0
0.02 0.12 0.0
0.04 0.12 0.0
0.06 0.12 0.0
0.08 0.12 0.0
0.1 0.12 0.0
0.12 0.12 0.0
0.14 0.12 0.0
0.16 0.12 0.0
0.18 0.12 0.0
0.2 0.12 0.0
0.22 0.12 0.0
0.24 0.12 0.0
0.26 0.12 0.0
0.28 0.12 0.0
0.3 0.12 0.0
0.32 0.12 0.0
0.34 0.12 0.0
0.36 0.12 0.0
0.38 0.12 0.0
0.4 0.12 0.0
0.42 0.12 0.0
0.44 0.12 0.0
0.46 0.12 0.0
0.48 0.12 0.0
0.5 0.12 0.0
0.52 0.12 0.0
0.54 0.12 0.0
0.56 0.12 0.0
0.58 0.12 0.0
0.6 0.12 0.0
0.62 0.12 0.0
0.64 0.12 0.0
0.66 0.12 0.0
0.68 0.12 0.0
0.7000000000000001 0.12 0.0
0.72 0.12 0.0
0.74 0.12 0.0
0.76 0.12 0.0
0.78 0.12 0.0
0.8 0.12 0.0
0.8200000000000001 0.12 0.0
0.84 0.12 0.0
0.86 0.12 0.0
0.88 0.12 0.0
0.9 0.12 0.0
0.92 0.12 0.0
0.9400000000000001 0.12 0.0
0.96 0.12 0.0
0.98 0.12 0.0
1.0 0.12 0.0
0.0 0.14 0.0
0.02 0.14 0.0
0.04 0.14 0.0
0.06 0.14 0.0
0.08 0.14 0.0
0.1 0.14 0.0
0.12 0.14 0.0
0.14 0.14 0.0
0.16 0.14 0.0
0.18 0.14 0.0
0.2 0.14 0.0
0.22 0.14 0.0
0.24 0.14 0.0
0.26 0.14 0.0
0.28 0.14 0.0
0.3 0.14 0.0
0.32 0.14 0.0
0.34 0.14 0.0
0.36 0.14 0.0
0.38 0.14 0.0
0.4 0.14 0.0
0.42 0.14 0.0
0.44 0.14 0.0
0.46 0.14 0.0
0.48 0.14 0.0
0.5 0.14 0.0
0.52 0.14 0.0
0.54 0.14 0.0
0.56 0.14 0.0
0.58 0.14 0.0
0.6 0.14 0.0
0.62 0.14 0.0
0.64 0.14 0.0
0.66 0.14 0.0
0.68 0.14 0.0
0.7000000000000001 0.14 0.0
0.72 0.14 0.0
0.74 0.14 0.0
0.76 0.14 0.0
0.78 0.14 0.0
0.8 0.14 0.0
0.8200000000000001 0.14 0.0
0.84 0.14 0.0
0.86 0.14 0.0
0.88 0.14 0.0
0.9 0.14 0.0
0.92 0.14 0.0
0.9400000000000001 0.14 0.0
0.96 0.14 0.0
0.98 0.14 0.0
1.0 0.14 0.0
0.0 0.16 0.0
0.02 0.16 0.0
0.04 0.16 0.0
0.06 0.16 0.0
0.08 0.16 0.0
0.1 0.16 0.0
0.12 0.16 0.0
0.14 0.16 0.0
0.16 0.16 0.0
0.18 0.16 0.0
0.2 0.16 0.0
0.22 0.16 0.0
0.24 0.16 0.0
0.26 0.16 0.0
0.28 0.16 0.0
0.3 0.16 0.0
0.32 0.16 0.0
0.34 0.16 0.0
0.36 0.16 0.0
0.38 0.16 0.0
0.4 0.16 0.0
0.42 0.16 0.0
0.44 0.16 0.0
0.46 0.16 0.0
0.48 0.16 0.0
0.5 0.16 0.0
0.52 0.16 0.0
0.54 0.16 0.0
0.56 0.16 0.0
0.58 0.16 0.0
0.6 0.16 0.0
0.62 0.16 0.0
0.64 0.16 0.0
0.66 0.16 0.0
0.68 0.16 0.0
0.7000000000000001 0.16 0.0
0.72 0.16 0.0
0.74 0.16 0.0
0.76 0.16 0.0
0.78 0.16 0.0
0.8 0.16 0.0
0.8200000000000001 0.16 0.0
0.84 0.16 0.0
0.86 0.16 0.0
0.88 0.16 0.0
0.9 0.16 0.0
0.92 0.16 0.0
0.9400000000000001 0.16 0.0
0.96 0.16 0.0
0.98 0.16 0.0
1.0 0.16 0.0
0.0 0.18 0.0
0.02 0.18 0.0
0.04 0.18 0.0
0.06 0.18 0.0
0.08 0.18 0.0
0.1 0.18 0.0
0.12 0.18 0.0
0.14 0.18 0.0
0.16 0.18 0.0
0.18 0.18 0.0
0.2 0.18 0.0
0.22 0.18 0.0
0.24 0.18 0.0
0.26 0.18 0.0
0.28 0.18 0.0
0.3 0.18 0.0
0.32 0.18 0.0
0.34 0.18 0.0
0.36 0.18 0.0
0.38 0.18 0.0
0.4 0.18 0.0
0.42 0.18 0.0
0.44 0.18 0.0
0.46 0.18 0.0
0.48 0.18 0.0
0.5 0.18 0.0
0.52 0.18 0.0
0.54 0.18 0.0
0.56 0.18 0.0
0.58 0.18 0.0
0.6 0.18 0.0
0.62 0.18 0.0
0.64 0.18 0.0
0.66 0.18 0.0
0.68 0.18 0.0
0.7000000000000001 0.18 0.0
0.72 0.18 0.0
0.74 0.18 0.0
0.76 0.18 0.0
0.78 0.18 0.0
0.8 0.18 0.0
0.8200000000000001 0.18 0.0
0.84 0.18 0.0
0.86 0.18 0.0
0.88 0.18 0.0
0.9 0.18 0.0
0.92 0.18 0.0
0.9400000000000001 0.18 0.0
0.96 0.18 0.0
0.98 0.18 0.0
1.0 0.18 0.0
0.0 0.2 0.0
0.02 0.2 0.0
0.04 0.2 0.0
0.06 0.2 0.0
0.08 0.2 0.0
0.1 0.2 0.0
0.12 0.2 0.0
0.14 0.2 0.0
0.16 0.2 0.0
0.18 0.2 0.0
0.2 0.2 0.0
0.22 0.2 0.0
0.24 0.2 0.0
0.26 0.2 0.0
0.28 0.2 0.0
0.3 0.2 0.0
0.32 0.2 0.0
0.34 0.2 0.0
0.36 0.2 0.0
0.38 0.2 0.0
0.4 0.2 0.0
0.42 0.2 0.0
0.44 0.2 0.0
0.46 0.2 0.0
0.48 0.2 0.0
0.5 0.2 0.0
0.52 0.2 0.0
0.54 0.2 0.0
0.56 0.2 0.0
0.58 0.2 0.0
0.6 0.2 0.0
0.62 0.2 0.0
0.64 0.2 0.0
0.66 0.2 0.0
0.68 0.2 0.0
0.7000000000000001 0.2 0.0
0.72 0.2 0.0
0.74 0.2 0.0
0.76 0.2 0.0
0.78 0.2 0.0
0.8 0.2 0.0
0.8200000000000001 0.2 0.0
0.84 0.2 0.0
0.86 0.2 0.0
0.88 0.2 0.0
0.9 0.2 0.0
0.92 0.2 0.0
0.9400000000000001 0.2 0.0
0.96 0.2 0.0
0.98 0.2 0.0
1.0 0.2 0.0
0.0 0.22 0.0
0.02 0.22 0.0
0.04 0.22 0.0
0.06 0.22 0.0
0.08 0.22 0.0
0.1 0.22 0.0
0.12 0.22 0.0
0.14 0.22 0.0
0.16 0.22 0.0
0.18 0.22 0.0
0.2 0.22 0.0
0.22 0.22 0.0
0.24 0.22 0.0
0.26 0.22 0.0
0.28 0.22 0.0
0.3 0.22 0.0
0.32 0.22 0.0
0.34 0.22 0.0
0.36 0.22 0.0
0.38 0.22 0.0
0.4 0.22 0.0
0.42 0.22 0.0
0.44 0.22 0.0
0.46 0.22 0.0
0.48 0.22 0.0
0.5 0.22 0.0
0.52 0.22 0.0
0.54 0.22 0.0
0.56 0.22 0.0
0.58 0.22 0.0
0.6 0.22 0.0
0.62 0.22 0.0
0.64 0.22 0.0
0.66 0.22 0.0
0.68 0.22 0.0
0.7000000000000001 0.22 0.0
0.72 0.22 0.0
0.74 0.22 0.0
0.76 0.22 0.0
0.78 0.22 0.0
0.8 0.22 0.0
0.8200000000000001 0.22 0.0
0.84 0.22 0.0
0.86 0.22 0.0
0.88 0.22 0.0
0.9 0.22 0.0
0.92 0.22 0.0
0.9400000000000001 0.22 0.0
0.96 0.22 0.0
0.98 0.22 0.0
1.0 0.22 0.0
0.0 0.24 0.0
0.02 0.24 0.0
0.04 0.24 0.0
0.06 0.24 0.0
0.08 0.24 0.0
0.1 0.24 0.0
0.12 0.24 0.0
0.14 0.24 0.0
0.16 0.24 0.0
0.18 0.24 0.0
0.2 0.24 0.0
0.22 0.24 0.0
0.24 0.24 0.0
0.26 0.24 0.0
0.28 0.24 0.0
0.3 0.24 0.0
0.32 0.24 0.0
0.34 0.24 0.0
0.36 0.24 0.0
0.38 0.24 0.0
0.4 0.24 0.0
0.42 0.24 0.0
0.44 0.24 0.0
0.46 0.24 0.0
0.48 0.24 0.0
0.5 0.24 0.0
0.52 0.24 0.0
0.54 0.24 0.0
0.56 0.24 0.0
0.58 0.24 0.0
0.6 0.24 0.0
0.62 0.24 0.0
0.64 0.24 0.0
0.66 0.24 0.0
0.68 0.24 0.0
0.7000000000000001 0.24 0.0
0.72 0.24 0.0
0.74 0.24 0.0
0.76 0.24 0.0
0.78 0.24 0.0
0.8 0.24 0.0
0.8200000000000001 0.24 0.0
0.84 0.24 0.0
0.86 0.24 0.0
0.88 0.24 0.0
0.9 0.24 0.0
0.92 0.24 0.0
0.9400000000000001 0.24 0.0
0.96 0.24 0.0
0.98 0.24 0.0
1.0 0.24 0.0
0.0 0.26 0.0
0.02 0.26 0.0
0.04 0.26 0.0
0.06 0.26 0.0
0.08 0.26 0.0
0.1 0.26 0.0
0.12 0.26 0.0
0.14 0.26 0.0
0.16 0.26 0.0
0.18 0.26 0.0
0.2 0.26 0.0
0.22 0.26 0.0
0.24 0.26 0.0
0.26 0.26 0.0
0.28 0.26 0.0
0.3 0.26 0.0
0.32 0.26 0.0
0.34 0.26 0.0
0.36 0.26 0.0
0.38 0.26 0.0
0.4 0.26 0.0
0.42 0.26 0.0
0.44 0.26 0.0
0.46 0.26 0.0
0.48 0.26 0.0
[...]
CELL_DATA 2500
SCALARS u float 1
LOOKUP_TABLE u_cell_table
-0.0008133913441747422 -0.0004922231721743814 -0.00012962192521778217 9.745808386252107e-05 0.00014727286599103598 1.5169793656952756e-05 -0.00027647502219726365 -0.0006892470702457799 -0.0011808043492307287 -0.0017131285261056226 -0.002256188161893561 -0.002789118223867456 -0.0032991894449293808 -0.0037802847444762485 -0.004230403637311956 -0.00464981908460643 -0.0050389557210268375 -0.005397598862582661 -0.005723938152377729 -0.006014967236581103 -0.006266298108629456 -0.006473072224273207 -0.0066298860977805265 -0.006731725344423309 -0.006773765727179651 -0.006752263717402697 -0.006664289659925969 -0.006508610339936908 -0.006285340062235742 -0.005996692744895574 -0.0056464430372708775 -0.005240500975568359 -0.004786267816538811 -0.004293115911663127 -0.003771664555788855 -0.003234074353203773 -0.0026931610269933745 -0.0021624655178614557 -0.0016552567336092306 -0.0011844375185564616 -0.0007614966385697228 -0.00039621502791185675 -9.532418915553302e-05 0.00013879010474595889 0.0003117938826385009 0.0004448571429205322 0.0005929839013280981 0.0008844274165167894 0.0015861098741559963 0.0 -0.0004991448824318333 -0.00037152225928667264 -0.0002929194016613035 -0.00043578772819189283 -0.0008344593142255306 -0.001476292334184999 -0.002328651706875325 -0.003347921866078328 -0.004488720837680378 -0.005708762508080417 -0.0069726508328993115 -0.008251324658472144 -0.009522722596439489 -0.01076896899255781 -0.011976349332484627 -0.013131955607868957 -0.014224336695670711 -0.01524060414213494 -0.016168299735662417 -0.016993062196952242 -0.01770141491592064 -0.018278602575357634 -0.018711844766919387 -0.018988082747162363 -0.019097461849976797 -0.019030964406108544 -0.01878403028636939 -0.018354088050514 -0.01774411574454231 -0.01695992451313854 -0.01601339374933785 -0.014919470566403883 -0.013699021506412935 -0.0123756276681251 -0.010977952031094394 -0.009536295140617022 -0.008084362029914888 -0.006655640512677456 -0.005284592837818732 -0.004002997738898271 -0.002840602472876706 -0.0018214601209141064 -0.0009638041465251585 -0.0002759524580402598 0.00024510527127952577 0.0006171890265854818 0.0008672488182985868 0.00099983282748745 0.000881348339692164 0.0 0.00021185664573104143 2.4129665429197433e-05 -0.00041496524607831863 -0.0011360398467729481 -0.0021335931217136275 -0.003369814636080235 -0.004801999921768491 -0.006391334080177167 -0.00810255522537516 -0.009904743050679989 -0.011769082669787836 -0.01366958002467989 -0.015580457284001285 -0.01747753037867865 -0.01933554927650317 -0.02113041405581828 -0.022836500064494364 -0.024429647040465248 -0.025884308729378348 -0.027177096624498628 -0.02828368003912749 -0.029182826037743113 -0.029853151680543616 -0.03027762441399655 -0.030440232389912066 -0.030330819944643417 -0.02994167694937834 -0.029272474043165936 -0.028326635291906457 -0.0271160259932431 -0.025656988954299634 -0.023974576444500587 -0.0220982568035209 -0.02006550699332955 -0.01791714451213423 -0.015700118381045812 -0.013462534661712468 -0.011255645511126833 -0.00912874461828736 -0.007130435634407365 -0.005303620073253862 -0.0036861596177900865 -0.0023062057571170786 -0.0011826556671174927 -0.00032222687443885553 0.00027656403974712256 0.0006161489983061315 0.0006810933850000735 0.00043765758736530607 0.0 0.0005074198387869788 -5.0627308784016126e-05 -0.0009906685776499354 -0.002210421877320571 -0.003688951736426509 -0.005396271409642014 -0.007302177365366726 -0.009379728371626483 -0.011604209769084002 -0.013948570493154844 -0.016384344675683137 -0.01887916537228441 -0.021399857025369028 -0.023910147396524577 -0.026374697789136748 -0.02875624418444559 -0.031020093404273433 -0.033130350856316555 -0.03505468976378235 -0.03675979421660364 -0.03821664432527512 -0.039395623663409624 -0.040272521554636405 -0.04082353720543807 -0.041031879457645956 -0.040882690503061495 -0.04036996121995656 -0.03949127547863039 -0.038254628868945914 -0.036672846814249226 -0.03476997176617446 -0.03257533193767819 -0.030129223511320146 -0.027476565076152478 -0.024671606958942216 -0.021771213541282787 -0.01883853175356892 -0.01593609210534546 -0.01312848678330547 -0.010475574920861404 -0.008034359205447707 -0.005852717443683707 -0.003970901323122473 -0.002416687842418087 -0.0012078865449821063 -0.0003510737037408958 0.00015381148442250852 0.0003186556128185427 0.0001986012721939244 0.0 0.00018955799622013316 -0.0006351395645867125 -0.0018977995980936641 -0.003448940337898144 -0.005265209425514542 -0.007338200106574589 -0.009652873060870065 -0.01218946378627632 -0.0149204040383434 -0.017812149888847426 -0.02082374822247761 -0.02391170871272941 -0.027028592160843787 -0.03012831864603378 -0.03316329504615109 -0.036089695521936666 -0.038863005185343615 -0.04144336933308838 -0.04378995714175335 -0.045866911437317075 -0.04763725169921238 -0.04906981972886539 -0.05013307609909711 -0.05080292195945156 -0.05105640417877208 -0.05088008024780366 -0.050263564956699563 -0.049208002839543345 -0.04771931296547818 -0.04581633801377493 -0.04352373699770207 -0.0408794741661776 -0.03792729399849381 -0.03472318884109389 -0.031327439043841956 -0.02780988897188894 -0.024241712955325602 -0.020699477786606194 -0.017256895483847134 -0.013987812584997924 -0.010958380651711492 -0.008229319789831789 -0.005849158258873726 -0.0038564202527359625 -0.0022747649147885135 -0.0011151469785378504 -0.0003703556658930425 -7.5819400156729475e-06 5.81735057136303e-05 0.0 -0.00045772089929673035 -0.0013761123637730968 -0.0027610614756292786 -0.004518380366895801 -0.006620483247993299 -0.009058495471029635 -0.011813455479479915 -0.014851551602384314 -0.01812932176133104 -0.021594195231786375 -0.025191125544009287 -0.028861794605773986 -0.03255077683339025 -0.03620217962557855 -0.03976530132607247 -0.043189167137282124 -0.04642831242928699 -0.049435946335205 -0.05217060330109122 -0.05458877929940449 -0.05665291042199733 -0.058323866255862125 -0.059570091169505485 -0.06035994327964492 -0.060671598919836235 -0.060485203676440696 -0.05979310456017895 -0.05859172923197265 -0.056891658402991166 -0.054709179115189036 -0.0520758008747981 -0.049029445912531805 -0.04562297891137152 -0.04191496568411324 -0.03797691417043838 -0.03388370249492149 -0.029719405148670285 -0.025567588055197665 -0.021515746144218438 -0.01764583774384861 -0.014037586591133772 -0.010759814619530541 -0.007873048408339713 -0.005422268677738131 -0.0034389930275037246 -0.001934893834710738 -0.0009007633168491621 -0.00029587919550921453 -3.866801497272513e-05 0.0 -0.0009187420549759144 -0.0018552299601311039 -0.003313610511234734 -0.005292154106340586 -0.007744399443388598 -0.010630662328230893 -0.013901300716018108 -0.017496541016637834 -0.021348520052108376 -0.025389467544461836 -0.029551126273776835 -0.03377079522836824 -0.03798702764519622 -0.042144913283772775 -0.04618952469447493 -0.050071733502243046 -0.05374041192801829 -0.05714958131054855 -0.06025011777426472 -0.06299856781575802 -0.06534862684541082 -0.06726135372691928 -0.0686963634710317 -0.06962298931633908 -0.07001119665992495 -0.06984328473780342 -0.06910454248500025 -0.06779500500913006 -0.06591982586344267 -0.06350064154404012 -0.06056566422889642 -0.05716019208469457 -0.05333633264079001 -0.04916222445338557 -0.04471140411695633 -0.04007048725874729 -0.03532828978445365 -0.030581849634905012 -0.02592556436176148 -0.021455681516194636 -0.017259936788727878 -0.013420867740257705 -0.01000657259104781 -0.007073204489314176 -0.004657116155247605 -0.0027760446199116967 -0.0014215653625969443 -0.0005576675599344802 -0.00011537832837458606 0.0 -0.0008765204657329071 -0.0019140045148700099 -0.003581348844508608 -0.005909360712017844 -0.008823642662951181 -0.012237402299420658 -0.016065665569394007 -0.02022233737971951 -0.02462658176877819 -0.029201572306748573 -0.033879566751913996 -0.03859608404025249 -0.04329426869125249 -0.047917135427761645 -0.05241329299953058 -0.05672835466506602 -0.06081260948614064 -0.06461199490337524 -0.06807774236487187 -0.07115694197499518 -0.07380374915547804 -0.0759694415347927 -0.07761472280760845 -0.07869935186582969 -0.07919518728673566 -0.07907554706016633 -0.07832855900676171 -0.07694630129603308 -0.07493797261626539 -0.07231886158700118 -0.06912286143988024 -0.06539120725020046 -0.06118379937603817 -0.05656763279969835 -0.051626531518175145 -0.04644928002826847 -0.041137489273862814 -0.03579354482230719 -0.030526559613347347 -0.025440503788856973 -0.020638496724666992 -0.016211725155786984 -0.01224252767661876 -0.00879473516649038 -0.005915827839488131 -0.003628943128884562 -0.0019341311119517278 -0.0008029811039241882 -0.0001823567643908296 0.0 -0.0004667420501162727 -0.0017583494832488665 -0.003818759559849966 -0.006615100999424774 -0.010044193114624912 -0.013988140342344243 -0.018338505576768842 -0.023001623011907522 -0.027893696611972347 -0.03294354326784368 -0.038085016588920745 -0.04326014587585347 -0.04841039003576124 -0.05348224566209164 -0.05841823898268671 -0.06316508844285518 -0.06766423073505443 -0.0718621407513496 -0.07570014527081406 -0.07912637510934206 -0.0820847728486919 -0.08452827057485418 -0.08640718964876995 -0.08768336489295629 -0.08831823876807691 -0.08828756836535799 -0.08756937584838574 -0.08615873414961686 -0.08405566450134247 -0.08127951123737774 -0.07785679395478402 -0.07383459125230696 -0.06926822095004095 -0.06423309302912883 -0.05881212282957889 -0.053105612304234114 -0.04721834428892254 -0.04126723313524141 -0.03536827715521004 -0.02964206052870182 -0.024201068601320597 -0.019153474666263652 -0.014591590400805876 -0.010594541620278331 -0.007218643542293205 -0.0044995589044023315 -0.002445583296483472 -0.001040797780886002 -0.00024439720785511396 0.0 -0.000125123613748488 -0.001749436729408914 -0.004269536005028267 -0.007536089564351894 -0.011428493828242414 -0.01582250620917964 -0.020611269896484638 -0.02570403115956933 -0.031025957896741473 -0.03650840867653551 -0.04209089222572299 -0.04771180591821572 -0.05331412980561316 -0.05883638148710619 -0.06422126603589624 -0.06940591561829168 -0.07433268951002865 -0.07893826430507493 -0.08316607482825153 -0.0869542636454847 -0.09024949445489291 -0.0929941164293926 -0.09514116139866408 -0.09664114959058144 -0.09745795903842772 -0.09755555349222421 -0.0969142206570168 -0.09551736620430368 -0.09336760421907966 -0.09047371230061538 -0.08686600359458048 -0.08258333973964166 -0.0776871438444329 -0.07224829212729533 -0.06635918053539248 -0.060120286943578696 -0.05364980254691411 -0.04706979682734895 -0.04051324376233494 -0.03411007801464388 -0.027991895788621136 -0.022278627270599885 -0.01708160972421418 -0.012491909786996365 -0.008582682734099546 -0.005400347278361305 -0.002967430795736362 -0.00127835982010205 -0.00030491454867599525 0.0 -0.00018887229446314698 -0.002084659483747092 -0.004960546638239164 -0.008585389268639295 -0.012827464550636105 -0.017575601478762096 -0.022731174930169008 -0.028211992695046997 -0.03394285364432859 -0.039856628644946025 -0.045885027039128064 -0.051964593712006915 -0.05802799079500118 -0.06401299707369369 -0.06985252460075073 -0.07548555128140895 -0.08084546439043729 -0.08587264204382786 -0.09050135691869264 -0.09467394466111487 -0.09832678408394764 -0.10140593807505888 -0.1038527113903518 -0.10562045437003217 -0.10666006788650088 -0.10693747107226236 -0.1064192708295545 -0.10509034692874958 -0.10293987068834451 -0.09997847617951869 -0.09622463013342382 -0.0917207244915104 -0.08651959291485664 -0.08069882947590253 -0.07434712904563305 -0.06757613944349043 -0.060506298807811575 -0.05327574243983014 -0.04602560279820347 -0.038905957337041094 -0.032061078439244946 -0.025633006373384018 -0.01974780193569349 -0.014517820519846745 -0.010030394166751574 -0.006350141654759144 -0.003511688597374272 -0.001523472507405506 -0.0003661063319277925 0.0 -0.0006213821985304473 -0.0026471565594837388 -0.005702915258071546 -0.009554783107478603 -0.01406299200948385 -0.019119442852578963 -0.02462946082133346 -0.030503970099155883 -0.036662377401083836 -0.04302428750205954 -0.04951581877622404 -0.05606134460025831 -0.0625925518048547 -0.06903813943729034 -0.07533444896375881 -0.08141296618956914 -0.08721269489841693 -0.09266603244019979 -0.097713057649182 -0.10228640342153565 -0.10632735916497214 -0.1097702398785344 -0.11255993065488266 -0.11463615816705822 -0.1159519678366977 -0.11645820979963167 -0.116122386098208 -0.11491362912316051 -0.11282142697231544 -0.10984125958323607 -0.10599259743497044 -0.10130505899421686 -0.09583494593307987 -0.08965155649258265 -0.0828514291158313 -0.07554427551737215 -0.06786414791322216 -0.05995457834398067 -0.05197625157757664 -0.04409142057544679 -0.03646833402590173 -0.029265742140734647 -0.022635098294995513 -0.016706670380203757 -0.011591072479715987 -0.007368826677842149 -0.0040928324796255175 -0.0017829745031428873 -0.00043052118310997077 0.0 -0.0010800398267242065 -0.0031388504850345905 -0.006272285502812874 -0.010301954624433198 -0.015071451899636604 -0.02045896086421331 -0.026352870201520804 -0.03265112573501154 -0.03925485543021363 -0.04607527051519256 -0.05302580192976025 -0.06003071961479853 -0.06701432069938518 -0.07391077358634722 -0.08065070383093378 -0.0871730383505929 -0.09340994637268515 -0.09930105287265002 -0.10477734945472 -0.10977759372151759 -0.11423159663997745 -0.11807831794961696 -0.12124892304065983 -0.12368603378352867 -0.12532697336854398 -0.12612361785190757 -0.12602621518631507 -0.12500336803886283 -0.12302677069934967 -0.12009083133759976 -0.1161983599193315 -0.11137913936997727 -0.10567625213152847 -0.09916273476692325 -0.09192790868925899 -0.08409111001458563 -0.0757872656295333 -0.06717684374214522 -0.05843021182296544 -0.0497335252631423 -0.041272162992327124 -0.033233213535253735 -0.025789301079441117 -0.01909927880304331 -0.013294534242694878 -0.008479915535160684 -0.004724604530016844 -0.002064759602725579 -0.0005000063720953555 0.0 -0.0012389291389936531 -0.0033487929493989143 -0.006597671696843648 -0.01085035042512639 -0.015933491741801722 -0.021694358259491092 -0.02800049134715809 -0.03472881415709968 -0.0417714574860067 -0.04902824626292862 -0.05641443814603241 -0.06384921177215333 -0.07126430329590246 -0.07858968438946734 -0.08576465521992646 -0.09272203134584772 -0.09940215647369577 -0.10573604340191446 -0.11166192656830098 -0.11710758991687696 -0.12200883281119347 -0.12629134535315004 -0.12989050943887093 -0.13273334703231277 -0.1347591274215753 -0.13590190245501607 -0.1361114531237577 -0.13533691197647055 -0.13354766620072991 -0.13071833835775587 -0.12684908656138424 -0.12195179098127334 -0.11606895545983764 -0.10926051323661891 -0.10162024923938363 -0.09326225912280472 -0.08433368543268221 -0.07499984228152272 -0.0654523578214601 -0.055892524038303 -0.04653482170717652 -0.03758920328127385 -0.029261277069783972 -0.021735547931323866 -0.01517459841017452 -0.009705972328868809 -0.005422689953195298 -0.0023757718678334098 -0.0005770307720537253 0.0 -0.0010583420248748887 -0.0033131365374852373 -0.006788367343328951 -0.011338475335065247 -0.01677380388625 -0.022919902787492032 -0.029623086311733306 -0.03675296834724569 -0.04419327334274311 -0.05184811960409867 -0.05962987928747087 -0.06746639188431099 -0.07528590205065532 -0.08302730244855831 -0.09062384598288921 -0.09801687601098857 -0.10513842019512502 -0.11192773756564345 -0.11831281391993566 -0.12422900186601936 -0.12959977141141896 -0.13435684884491889 -0.13842084669501303 -0.14172239742201925 -0.1441833109616039 -0.14573822153196558 -0.14631688983444635 -0.14586603145245644 -0.1443332783755518 -0.14168880661962668 -0.13791105936162826 -0.13300754298219658 -0.12700191664983218 -0.11995297894749939 -0.11194216555793365 -0.10308936818474117 -0.09353949428985166 -0.08347366500725441 -0.07309361253254539 -0.06262734037133472 -0.05231108093348714 -0.04238985815139071 -0.0330984038910336 -0.02465878923310332 -0.017263261207429676 -0.011072087928835477 -0.006201499600569589 -0.0027240914156336695 -0.0006633983098614865 0.0 -0.0007748480898894378 -0.0032416582585004686 -0.00701284744361174 -0.011882196781644047 -0.01765426477889375 -0.02414379312442938 -0.031193910717760717 -0.03866922965911489 -0.046459758287647264 -0.05446805837094094 -0.06261507662112627 -0.07082472279974107 -0.07903329301717014 -0.08717305076412996 -0.09518561102515972 -0.10300420316204498 -0.11057002076142523 -0.11781299623654251 -0.12467040030077402 -0.13106654616019828 -0.13693307721297407 -0.14218830578584005 -0.14675868502579784 -0.15055854256494008 -0.15351222132151168 -0.15553490515654037 -0.15655506643508638 -0.15649708480032326 -0.155303774882753 -0.15292120870817713 -0.14932092033194602 -0.14448683644538918 -0.13843642726845246 -0.13120901952170697 -0.12288464771465264 -0.1135723398233193 -0.1034249351081502 -0.09262552683819768 -0.08139647579680423 -0.06998257732322749 -0.05865346195317629 -0.047683625109829465 -0.037349448022131485 -0.027908564954825493 -0.01959488642311286 -0.012601401576067248 -0.0070771301310332945 -0.0031167814857873625 -0.000761603494688178 0.0 -0.0006609969767559238 -0.003320568609493032 -0.007353578881122639 -0.012493125817156493 -0.018536295202154954 -0.025303680668790983 -0.03263751594087401 -0.040409137145547294 -0.04850672717944154 -0.05683979298982179 -0.06532381707098016 -0.07388897133838723 -0.08246393522997879 -0.090988852749937 -0.09939745340900197 -0.10763296968474899 -0.11562829225243 -0.12332429905294007 -0.13064862645854214 -0.1375359422201122 -0.14390608566066265 -0.14968573403631336 -0.1547867299219801 -0.1591285677857545 -0.16261766353799637 -0.16517020140599623 -0.16669314601002988 -0.16710728962978375 -0.16633071211584596 -0.16430186392748558 -0.16096573376815665 -0.15629655598580833 -0.1502863536217791 -0.14296637320276043 -0.13439686440542423 -0.12468561080075218 -0.11397694760665496 -0.10246510354802095 -0.09038005904611238 -0.07799356688112821 -0.06560032565670668 -0.053516229672111636 -0.042055830293639976 -0.03152533439950131 -0.022200403500224453 -0.01431884683297318 -0.008064090584729497 -0.003562046055000794 -0.0008734802191735259 0.0 -0.0008042108117014704 -0.0035732268725895354 -0.007767559981170215 -0.01309155836528958 -0.019335613891537845 -0.026320315877091754 -0.033894003822959665 -0.041924458061926344 -0.05030381139118157 -0.05893384526869057 -0.06773401324835075 -0.07662581445057723 -0.08554521353082468 -0.09442478056100372 -0.10320891613559176 -0.11183349550730724 -0.12024370303266622 -0.1283720294427496 -0.1361583941272178 -0.14352724458190683 -0.1504093123962027 -0.15671861538450865 -0.162375188515851 -0.1672827951486258 -0.17135205044530918 -0.17447967030909414 -0.17657176978801978 -0.17752556524509003 -0.17725286551559533 -0.17566484042760924 -0.17269560352663596 -0.16829016090370702 -0.1624276598635484 -0.15511190720956305 -0.1463931245642211 -0.1363593515775425 -0.12515446691562246 -0.11296766888666539 -0.1000447082289099 -0.0866723755411627 -0.07318048961003748 -0.059920039818965015 -0.047256302949444204 -0.0355431003687698 -0.025111543070749205 -0.0162466118424109 -0.0091783155252212 -0.004067022102321641 -0.00100158036118688 0.0 -0.001077450307925912 -0.003880761604397547 -0.008144250759950547 -0.01358638707361385 -0.019982642269818315 -0.027152068430043686 -0.0349365902338864 -0.04320455503693876 -0.05183801473711487 -0.0607403548591899 -0.06982148195698831 -0.07900955844364525 -0.0882333175486656 -0.09743634639804064 -0.10655636103561816 -0.11554234587332868 -0.12433198696020999 -0.13287152357140053 -0.14109201615886463 -0.14893110356685438 -0.15630881679452696 -0.16315047809657748 -0.16936291888471883 -0.17485783443028552 -0.17952923976723806 -0.18327689677141304 -0.1859860044359801 -0.18755077291841443 -0.18785725453505228 -0.18680720177168092 -0.18430455128801915 -0.18027958307261174 -0.17467906397984542 -0.16749023979906644 -0.15873367421186893 -0.1484854532214779 -0.136870244611052 -0.12407853654983048 -0.11035602373043203 -0.09601182818214504 -0.08140043408518803 -0.06691830443128133 -0.0529777066058216