# vtk DataFile Version 3.0
vtk output
ASCII
DATASET STRUCTURED_GRID
DIMENSIONS 51 51 1
POINTS 2601 float
0.0 0.0 0.0
0.02 0.0 0.0
0.04 0.0 0.0
0.06 0.0 0.0
0.08 0.0 0.0
0.1 0.0 0.0
0.12 0.0 0.0
0.14 0.0 0.0
0.16 0.0 0.0
0.18 0.0 0.0
0.2 0.0 0.0
0.22 0.0 0.0
0.24 0.0 0.0
0.26 0.0 0.0
0.28 0.0 0.0
0.3 0.0 0.0
0.32 0.0 0.0
0.34 0.0 0.0
0.36 0.0 0.0
0.38 0.0 0.0
0.4 0.0 0.0
0.42 0.0 0.0
0.44 0.0 0.0
0.46 0.0 0.0
0.48 0.0 0.0
0.5 0.0 0.0
0.52 0.0 0.0
0.54 0.0 0.0
0.56 0.0 0.0
0.58 0.0 0.0
0.6 0.0 0.0
0.62 0.0 0.0
0.64 0.0 0.0
0.66 0.0 0.0
0.68 0.0 0.0
0.7000000000000001 0.0 0.0
0.72 0.0 0.0
0.74 0.0 0.0
0.76 0.0 0.0
0.78 0.0 0.0
0.8 0.0 0.0
0.8200000000000001 0.0 0.0
0.84 0.0 0.0
0.86 0.0 0.0
0.88 0.0 0.0
0.9 0.0 0.0
0.92 0.0 0.0
0.9400000000000001 0.0 0.0
0.96 0.0 0.0
0.98 0.0 0.0
1.0 0.0 0.0
0.0 0.02 0.0
0.02 0.02 0.0
0.04 0.02 0.0
0.06 0.02 0.0
0.08 0.02 0.0
0.1 0.02 0.0
0.12 0.02 0.0
0.14 0.02 0.0
0.16 0.02 0.0
0.18 0.02 0.0
0.2 0.02 0.0
0.22 0.02 0.0
0.24 0.02 0.0
0.26 0.02 0.0
0.28 0.02 0.0
0.3 0.02 0.0
0.32 0.02 0.0
0.34 0.02 0.0
0.36 0.02 0.0
0.38 0.02 0.0
0.4 0.02 0.0
0.42 0.02 0.0
0.44 0.02 0.0
0.46 0.02 0.0
0.48 0.02 0.0
0.5 0.02 0.0
0.52 0.02 0.0
0.54 0.02 0.0
0.56 0.02 0.0
0.58 0.02 0.0
0.6 0.02 0.0
0.62 0.02 0.0
0.64 0.02 0.0
0.66 0.02 0.0
0.68 0.02 0.0
0.7000000000000001 0.02 0.0
0.72 0.02 0.0
0.74 0.02 0.0
0.76 0.02 0.0
0.78 0.02 0.0
0.8 0.02 0.0
0.8200000000000001 0.02 0.0
0.84 0.02 0.0
0.86 0.02 0.0
0.88 0.02 0.0
0.9 0.02 0.0
0.92 0.02 0.0
0.9400000000000001 0.02 0.0
0.96 0.02 0.0
0.98 0.02 0.0
1.0 0.02 0.0
0.0 0.04 0.0
0.02 0.04 0.0
0.04 0.04 0.0
0.06 0.04 0.0
0.08 0.04 0.0
0.1 0.04 0.0
0.12 0.04 0.0
0.14 0.04 0.0
0.16 0.04 0.0
0.18 0.04 0.0
0.2 0.04 0.0
0.22 0.04 0.0
0.24 0.04 0.0
0.26 0.04 0.0
0.28 0.04 0.0
0.3 0.04 0.0
0.32 0.04 0.0
0.34 0.04 0.0
0.36 0.04 0.0
0.38 0.04 0.0
0.4 0.04 0.0
0.42 0.04 0.0
0.44 0.04 0.0
0.46 0.04 0.0
0.48 0.04 0.0
0.5 0.04 0.0
0.52 0.04 0.0
0.54 0.04 0.0
0.56 0.04 0.0
0.58 0.04 0.0
0.6 0.04 0.0
0.62 0.04 0.0
0.64 0.04 0.0
0.66 0.04 0.0
0.68 0.04 0.0
0.7000000000000001 0.04 0.0
0.72 0.04 0.0
0.74 0.04 0.0
0.76 0.04 0.0
0.78 0.04 0.0
0.8 0.04 0.0
0.8200000000000001 0.04 0.0
0.84 0.04 0.0
0.86 0.04 0.0
0.88 0.04 0.0
0.9 0.04 0.0
0.92 0.04 0.0
0.9400000000000001 0.04 0.0
0.96 0.04 0.0
0.98 0.04 0.0
1.0 0.04 0.0
0.0 0.06 0.0
0.02 0.06 0.0
0.04 0.06 0.0
0.06 0.06 0.0
0.08 0.06 0.0
0.1 0.06 0.0
0.12 0.06 0.0
0.14 0.06 0.0
0.16 0.06 0.0
0.18 0.06 0.0
0.2 0.06 0.0
0.22 0.06 0.0
0.24 0.06 0.0
0.26 0.06 0.0
0.28 0.06 0.0
0.3 0.06 0.0
0.32 0.06 0.0
0.34 0.06 0.0
0.36 0.06 0.0
0.38 0.06 0.0
0.4 0.06 0.0
0.42 0.06 0.0
0.44 0.06 0.0
0.46 0.06 0.0
0.48 0.06 0.0
0.5 0.06 0.0
0.52 0.06 0.0
0.54 0.06 0.0
0.56 0.06 0.0
0.58 0.06 0.0
0.6 0.06 0.0
0.62 0.06 0.0
0.64 0.06 0.0
0.66 0.06 0.0
0.68 0.06 0.0
0.7000000000000001 0.06 0.0
0.72 0.06 0.0
0.74 0.06 0.0
0.76 0.06 0.0
0.78 0.06 0.0
0.8 0.06 0.0
0.8200000000000001 0.06 0.0
0.84 0.06 0.0
0.86 0.06 0.0
0.88 0.06 0.0
0.9 0.06 0.0
0.92 0.06 0.0
0.9400000000000001 0.06 0.0
0.96 0.06 0.0
0.98 0.06 0.0
1.0 0.06 0.0
0.0 0.08 0.0
0.02 0.08 0.0
0.04 0.08 0.0
0.06 0.08 0.0
0.08 0.08 0.0
0.1 0.08 0.0
0.12 0.08 0.0
0.14 0.08 0.0
0.16 0.08 0.0
0.18 0.08 0.0
0.2 0.08 0.0
0.22 0.08 0.0
0.24 0.08 0.0
0.26 0.08 0.0
0.28 0.08 0.0
0.3 0.08 0.0
0.32 0.08 0.0
0.34 0.08 0.0
0.36 0.08 0.0
0.38 0.08 0.0
0.4 0.08 0.0
0.42 0.08 0.0
0.44 0.08 0.0
0.46 0.08 0.0
0.48 0.08 0.0
0.5 0.08 0.0
0.52 0.08 0.0
0.54 0.08 0.0
0.56 0.08 0.0
0.58 0.08 0.0
0.6 0.08 0.0
0.62 0.08 0.0
0.64 0.08 0.0
0.66 0.08 0.0
0.68 0.08 0.0
0.7000000000000001 0.08 0.0
0.72 0.08 0.0
0.74 0.08 0.0
0.76 0.08 0.0
0.78 0.08 0.0
0.8 0.08 0.0
0.8200000000000001 0.08 0.0
0.84 0.08 0.0
0.86 0.08 0.0
0.88 0.08 0.0
0.9 0.08 0.0
0.92 0.08 0.0
0.9400000000000001 0.08 0.0
0.96 0.08 0.0
0.98 0.08 0.0
1.0 0.08 0.0
0.0 0.1 0.0
0.02 0.1 0.0
0.04 0.1 0.0
0.06 0.1 0.0
0.08 0.1 0.0
0.1 0.1 0.0
0.12 0.1 0.0
0.14 0.1 0.0
0.16 0.1 0.0
0.18 0.1 0.0
0.2 0.1 0.0
0.22 0.1 0.0
0.24 0.1 0.0
0.26 0.1 0.0
0.28 0.1 0.0
0.3 0.1 0.0
0.32 0.1 0.0
0.34 0.1 0.0
0.36 0.1 0.0
0.38 0.1 0.0
0.4 0.1 0.0
0.42 0.1 0.0
0.44 0.1 0.0
0.46 0.1 0.0
0.48 0.1 0.0
0.5 0.1 0.0
0.52 0.1 0.0
0.54 0.1 0.0
0.56 0.1 0.0
0.58 0.1 0.0
0.6 0.1 0.0
0.62 0.1 0.0
0.64 0.1 0.0
0.66 0.1 0.0
0.68 0.1 0.0
0.7000000000000001 0.1 0.0
0.72 0.1 0.0
0.74 0.1 0.0
0.76 0.1 0.0
0.78 0.1 0.0
0.8 0.1 0.0
0.8200000000000001 0.1 0.0
0.84 0.1 0.0
0.86 0.1 0.0
0.88 0.1 0.0
0.9 0.1 0.0
0.92 0.1 0.0
0.9400000000000001 0.1 0.0
0.96 0.1 0.0
0.98 0.1 0.0
1.0 0.1 0.0
0.0 0.12 0.0
0.02 0.12 0.0
0.04 0.12 0.0
0.06 0.12 0.0
0.08 0.12 0.0
0.1 0.12 0.0
0.12 0.12 0.0
0.14 0.12 0.0
0.16 0.12 0.0
0.18 0.12 0.0
0.2 0.12 0.0
0.22 0.12 0.0
0.24 0.12 0.0
0.26 0.12 0.0
0.28 0.12 0.0
0.3 0.12 0.0
0.32 0.12 0.0
0.34 0.12 0.0
0.36 0.12 0.0
0.38 0.12 0.0
0.4 0.12 0.0
0.42 0.12 0.0
0.44 0.12 0.0
0.46 0.12 0.0
0.48 0.12 0.0
0.5 0.12 0.0
0.52 0.12 0.0
0.54 0.12 0.0
0.56 0.12 0.0
0.58 0.12 0.0
0.6 0.12 0.0
0.62 0.12 0.0
0.64 0.12 0.0
0.66 0.12 0.0
0.68 0.12 0.0
0.7000000000000001 0.12 0.0
0.72 0.12 0.0
0.74 0.12 0.0
0.76 0.12 0.0
0.78 0.12 0.0
0.8 0.12 0.0
0.8200000000000001 0.12 0.0
0.84 0.12 0.0
0.86 0.12 0.0
0.88 0.12 0.0
0.9 0.12 0.0
0.92 0.12 0.0
0.9400000000000001 0.12 0.0
0.96 0.12 0.0
0.98 0.12 0.0
1.0 0.12 0.0
0.0 0.14 0.0
0.02 0.14 0.0
0.04 0.14 0.0
0.06 0.14 0.0
0.08 0.14 0.0
0.1 0.14 0.0
0.12 0.14 0.0
0.14 0.14 0.0
0.16 0.14 0.0
0.18 0.14 0.0
0.2 0.14 0.0
0.22 0.14 0.0
0.24 0.14 0.0
0.26 0.14 0.0
0.28 0.14 0.0
0.3 0.14 0.0
0.32 0.14 0.0
0.34 0.14 0.0
0.36 0.14 0.0
0.38 0.14 0.0
0.4 0.14 0.0
0.42 0.14 0.0
0.44 0.14 0.0
0.46 0.14 0.0
0.48 0.14 0.0
0.5 0.14 0.0
0.52 0.14 0.0
0.54 0.14 0.0
0.56 0.14 0.0
0.58 0.14 0.0
0.6 0.14 0.0
0.62 0.14 0.0
0.64 0.14 0.0
0.66 0.14 0.0
0.68 0.14 0.0
0.7000000000000001 0.14 0.0
0.72 0.14 0.0
0.74 0.14 0.0
0.76 0.14 0.0
0.78 0.14 0.0
0.8 0.14 0.0
0.8200000000000001 0.14 0.0
0.84 0.14 0.0
0.86 0.14 0.0
0.88 0.14 0.0
0.9 0.14 0.0
0.92 0.14 0.0
0.9400000000000001 0.14 0.0
0.96 0.14 0.0
0.98 0.14 0.0
1.0 0.14 0.0
0.0 0.16 0.0
0.02 0.16 0.0
0.04 0.16 0.0
0.06 0.16 0.0
0.08 0.16 0.0
0.1 0.16 0.0
0.12 0.16 0.0
0.14 0.16 0.0
0.16 0.16 0.0
0.18 0.16 0.0
0.2 0.16 0.0
0.22 0.16 0.0
0.24 0.16 0.0
0.26 0.16 0.0
0.28 0.16 0.0
0.3 0.16 0.0
0.32 0.16 0.0
0.34 0.16 0.0
0.36 0.16 0.0
0.38 0.16 0.0
0.4 0.16 0.0
0.42 0.16 0.0
0.44 0.16 0.0
0.46 0.16 0.0
0.48 0.16 0.0
0.5 0.16 0.0
0.52 0.16 0.0
0.54 0.16 0.0
0.56 0.16 0.0
0.58 0.16 0.0
0.6 0.16 0.0
0.62 0.16 0.0
0.64 0.16 0.0
0.66 0.16 0.0
0.68 0.16 0.0
0.7000000000000001 0.16 0.0
0.72 0.16 0.0
0.74 0.16 0.0
0.76 0.16 0.0
0.78 0.16 0.0
0.8 0.16 0.0
0.8200000000000001 0.16 0.0
0.84 0.16 0.0
0.86 0.16 0.0
0.88 0.16 0.0
0.9 0.16 0.0
0.92 0.16 0.0
0.9400000000000001 0.16 0.0
0.96 0.16 0.0
0.98 0.16 0.0
1.0 0.16 0.0
0.0 0.18 0.0
0.02 0.18 0.0
0.04 0.18 0.0
0.06 0.18 0.0
0.08 0.18 0.0
0.1 0.18 0.0
0.12 0.18 0.0
0.14 0.18 0.0
0.16 0.18 0.0
0.18 0.18 0.0
0.2 0.18 0.0
0.22 0.18 0.0
0.24 0.18 0.0
0.26 0.18 0.0
0.28 0.18 0.0
0.3 0.18 0.0
0.32 0.18 0.0
0.34 0.18 0.0
0.36 0.18 0.0
0.38 0.18 0.0
0.4 0.18 0.0
0.42 0.18 0.0
0.44 0.18 0.0
0.46 0.18 0.0
0.48 0.18 0.0
0.5 0.18 0.0
0.52 0.18 0.0
0.54 0.18 0.0
0.56 0.18 0.0
0.58 0.18 0.0
0.6 0.18 0.0
0.62 0.18 0.0
0.64 0.18 0.0
0.66 0.18 0.0
0.68 0.18 0.0
0.7000000000000001 0.18 0.0
0.72 0.18 0.0
0.74 0.18 0.0
0.76 0.18 0.0
0.78 0.18 0.0
0.8 0.18 0.0
0.8200000000000001 0.18 0.0
0.84 0.18 0.0
0.86 0.18 0.0
0.88 0.18 0.0
0.9 0.18 0.0
0.92 0.18 0.0
0.9400000000000001 0.18 0.0
0.96 0.18 0.0
0.98 0.18 0.0
1.0 0.18 0.0
0.0 0.2 0.0
0.02 0.2 0.0
0.04 0.2 0.0
0.06 0.2 0.0
0.08 0.2 0.0
0.1 0.2 0.0
0.12 0.2 0.0
0.14 0.2 0.0
0.16 0.2 0.0
0.18 0.2 0.0
0.2 0.2 0.0
0.22 0.2 0.0
0.24 0.2 0.0
0.26 0.2 0.0
0.28 0.2 0.0
0.3 0.2 0.0
0.32 0.2 0.0
0.34 0.2 0.0
0.36 0.2 0.0
0.38 0.2 0.0
0.4 0.2 0.0
0.42 0.2 0.0
0.44 0.2 0.0
0.46 0.2 0.0
0.48 0.2 0.0
0.5 0.2 0.0
0.52 0.2 0.0
0.54 0.2 0.0
0.56 0.2 0.0
0.58 0.2 0.0
0.6 0.2 0.0
0.62 0.2 0.0
0.64 0.2 0.0
0.66 0.2 0.0
0.68 0.2 0.0
0.7000000000000001 0.2 0.0
0.72 0.2 0.0
0.74 0.2 0.0
0.76 0.2 0.0
0.78 0.2 0.0
0.8 0.2 0.0
0.8200000000000001 0.2 0.0
0.84 0.2 0.0
0.86 0.2 0.0
0.88 0.2 0.0
0.9 0.2 0.0
0.92 0.2 0.0
0.9400000000000001 0.2 0.0
0.96 0.2 0.0
0.98 0.2 0.0
1.0 0.2 0.0
0.0 0.22 0.0
0.02 0.22 0.0
0.04 0.22 0.0
0.06 0.22 0.0
0.08 0.22 0.0
0.1 0.22 0.0
0.12 0.22 0.0
0.14 0.22 0.0
0.16 0.22 0.0
0.18 0.22 0.0
0.2 0.22 0.0
0.22 0.22 0.0
0.24 0.22 0.0
0.26 0.22 0.0
0.28 0.22 0.0
0.3 0.22 0.0
0.32 0.22 0.0
0.34 0.22 0.0
0.36 0.22 0.0
0.38 0.22 0.0
0.4 0.22 0.0
0.42 0.22 0.0
0.44 0.22 0.0
0.46 0.22 0.0
0.48 0.22 0.0
0.5 0.22 0.0
0.52 0.22 0.0
0.54 0.22 0.0
0.56 0.22 0.0
0.58 0.22 0.0
0.6 0.22 0.0
0.62 0.22 0.0
0.64 0.22 0.0
0.66 0.22 0.0
0.68 0.22 0.0
0.7000000000000001 0.22 0.0
0.72 0.22 0.0
0.74 0.22 0.0
0.76 0.22 0.0
0.78 0.22 0.0
0.8 0.22 0.0
0.8200000000000001 0.22 0.0
0.84 0.22 0.0
0.86 0.22 0.0
0.88 0.22 0.0
0.9 0.22 0.0
0.92 0.22 0.0
0.9400000000000001 0.22 0.0
0.96 0.22 0.0
0.98 0.22 0.0
1.0 0.22 0.0
0.0 0.24 0.0
0.02 0.24 0.0
0.04 0.24 0.0
0.06 0.24 0.0
0.08 0.24 0.0
0.1 0.24 0.0
0.12 0.24 0.0
0.14 0.24 0.0
0.16 0.24 0.0
0.18 0.24 0.0
0.2 0.24 0.0
0.22 0.24 0.0
0.24 0.24 0.0
0.26 0.24 0.0
0.28 0.24 0.0
0.3 0.24 0.0
0.32 0.24 0.0
0.34 0.24 0.0
0.36 0.24 0.0
0.38 0.24 0.0
0.4 0.24 0.0
0.42 0.24 0.0
0.44 0.24 0.0
0.46 0.24 0.0
0.48 0.24 0.0
0.5 0.24 0.0
0.52 0.24 0.0
0.54 0.24 0.0
0.56 0.24 0.0
0.58 0.24 0.0
0.6 0.24 0.0
0.62 0.24 0.0
0.64 0.24 0.0
0.66 0.24 0.0
0.68 0.24 0.0
0.7000000000000001 0.24 0.0
0.72 0.24 0.0
0.74 0.24 0.0
0.76 0.24 0.0
0.78 0.24 0.0
0.8 0.24 0.0
0.8200000000000001 0.24 0.0
0.84 0.24 0.0
0.86 0.24 0.0
0.88 0.24 0.0
0.9 0.24 0.0
0.92 0.24 0.0
0.9400000000000001 0.24 0.0
0.96 0.24 0.0
0.98 0.24 0.0
1.0 0.24 0.0
0.0 0.26 0.0
0.02 0.26 0.0
0.04 0.26 0.0
0.06 0.26 0.0
0.08 0.26 0.0
0.1 0.26 0.0
0.12 0.26 0.0
0.14 0.26 0.0
0.16 0.26 0.0
0.18 0.26 0.0
0.2 0.26 0.0
0.22 0.26 0.0
0.24 0.26 0.0
0.26 0.26 0.0
0.28 0.26 0.0
0.3 0.26 0.0
0.32 0.26 0.0
0.34 0.26 0.0
0.36 0.26 0.0
0.38 0.26 0.0
0.4 0.26 0.0
0.42 0.26 0.0
0.44 0.26 0.0
0.46 0.26 0.0
0.48 0.26 0.0
[...]
CELL_DATA 2500
SCALARS u float 1
LOOKUP_TABLE u_cell_table
6.274957237175972e-05 0.00011893019986783371 0.00010735029963683548 7.78112272662991e-06 -0.00017980253602162 -0.0004466254218014184 -0.0007806318531453544 -0.0011691782069605465 -0.0016001794398190039 -0.0020626613226329563 -0.0025467873586926294 -0.0030438479981211262 -0.0035459739877124457 -0.004046001406918713 -0.004537137236890004 -0.005012864130973859 -0.005466669848731769 -0.00589205953488983 -0.006282394661930943 -0.006631032568840288 -0.006931283369788271 -0.007176667568167832 -0.007360975221345414 -0.0074786124829699695 -0.007524729061406341 -0.00749560827368999 -0.007388813137088194 -0.007203560548282329 -0.0069408240735484225 -0.006603624258135219 -0.006197022301268551 -0.005728261517346341 -0.005206597165033741 -0.004643244453780777 -0.004051019272085964 -0.003444085615799117 -0.002837424368344233 -0.0022464155381539267 -0.0016861869358565167 -0.0011710815446291534 -0.0007139118855841474 -0.0003252542556872746 -1.234785194233857e-05 0.0002225419798688374 0.0003855495237853128 0.0004987166819072556 0.0006175551167778282 0.0008692117471557231 0.0015146893746007287 0.0 5.832820764798659e-05 4.3232738241776516e-05 -0.0001370522498503718 -0.0005196979403459406 -0.00110874589937114 -0.001889379501037105 -0.0028374977451167613 -0.00392506759298953 -0.005123688443686847 -0.006405879869421211 -0.007746224379061459 -0.009121040040065314 -0.010508679560935336 -0.01188864451697244 -0.013241723011214181 -0.014549033830970188 -0.015792313039632154 -0.016953119986328744 -0.018013399031297346 -0.018954938222272334 -0.019760224663899005 -0.020412158079497977 -0.020895148973265505 -0.0211950289272949 -0.021300292170789315 -0.021202100230633982 -0.020895531627179484 -0.02037954676122121 -0.01965808780340045 -0.018739855228058575 -0.017639098758414948 -0.016375069875650527 -0.0149723754301847 -0.013460018983324499 -0.011871255222386471 -0.010242213471852571 -0.008611280006414989 -0.0070173834790566774 -0.005499002468265835 -0.004092224747629256 -0.0028294445661946207 -0.0017371702427163589 -0.0008341958227416385 -0.0001287176259187053 0.0003844839252502734 0.0007266908692890085 0.0009311431170694396 0.0010127574673232584 0.0008590003871799518 0.0 -9.428472146742017e-06 -0.00019269929813875582 -0.000632245304626624 -0.0013627280521617557 -0.0023856507054918195 -0.003681468799225531 -0.005218180351180684 -0.006957981984630529 -0.00886085220592676 -0.010887477389918323 -0.01299989701675075 -0.015162583485500246 -0.017341719816766334 -0.019505606485737095 -0.021623483680562855 -0.023665902118667988 -0.02560358437646522 -0.027408073207833995 -0.02905086978379042 -0.03050447069677532 -0.031741853973125955 -0.03273788370320768 -0.033469102461663465 -0.0339153940524063 -0.03405996416299476 -0.0338910917237177 -0.03340212784945798 -0.03259312867030022 -0.03147067474051622 -0.03004916624898942 -0.02835026805296615 -0.026403671308465753 -0.02424601252131174 -0.021920971413399305 -0.019477598319977446 -0.01696972172615242 -0.014453731770020817 -0.01198738523082182 -0.009627193488673164 -0.007426786506215628 -0.00543408732866168 -0.0036893994553280677 -0.0022225825759521626 -0.0010513083456213314 -0.0001795473504701959 0.0004004376878443345 0.0007003041564177849 0.000719065069771026 0.0004423102138358016 0.0 -0.00010211766171475296 -0.0005028550459987646 -0.0012549213470652775 -0.0023768826603622916 -0.0038606788146212214 -0.005679047804540907 -0.007792936680058276 -0.01015636109439989 -0.01272099922785629 -0.015437954374297767 -0.018260046636365407 -0.021141531826526647 -0.024039192004359482 -0.02691107766317322 -0.029717245107067546 -0.032418253168623325 -0.03497605763714631 -0.03735268323325426 -0.03951151642000727 -0.04141633812212577 -0.043033062360679664 -0.04432914729945236 -0.04527569395780092 -0.04584713826436491 -0.04602353619784378 -0.045790364356790514 -0.04514076354260677 -0.04407523199661286 -0.04260357451388845 -0.04074426096557028 -0.038525836394922096 -0.03598574397854239 -0.0331710009277736 -0.030136355991450172 -0.02694412989084901 -0.02366169018404972 -0.020360483211435312 -0.017112943822326254 -0.013990880457838063 -0.011062062674483463 -0.008388242383108695 -0.006021801265555504 -0.004003923855686887 -0.0023621522673282205 -0.0011101109686356956 -0.00024799648446955464 0.0002350592954792408 0.00036475756289977085 0.00021319889689121126 0.0 -0.00020195329599819275 -0.0008416809600675226 -0.0019336997020793982 -0.003472698309398177 -0.005434779715684573 -0.007782054203070854 -0.010466566178470872 -0.013435086270757868 -0.016631442328066817 -0.019999683263914908 -0.023484374230050786 -0.02703238741499395 -0.03059184519171259 -0.03411326532383494 -0.03754792722637266 -0.04084898190540732 -0.043969802936814725 -0.046865426830266094 -0.049491200707490975 -0.05180469221872068 -0.05376473722085728 -0.05533378600751557 -0.05647730224137396 -0.057166394993321906 -0.05737741946423874 -0.05709467158991649 -0.05630998082657143 -0.05502520543732105 -0.05325158029170362 -0.051011742523140516 -0.048338602760068156 -0.045276656573088464 -0.04188019205499559 -0.03821371050301875 -0.034349373730416584 -0.030366472228047413 -0.026348150645081746 -0.0223800152551084 -0.018546340543969822 -0.014928082301720342 -0.011598950419478296 -0.008623298490810456 -0.006052688356380432 -0.003924402256908992 -0.0022592747375784436 -0.0010609626568114092 -0.00031263841704412624 3.2087623669540904e-05 7.351877935939277e-05 0.0 -0.0003015154369310777 -0.0011860397468152141 -0.0026286022936439007 -0.004595698319907667 -0.007044167415072447 -0.009921946982931083 -0.01317123783451768 -0.016730153925460876 -0.02053594313177662 -0.024525431952009843 -0.028637317082077427 -0.032811265827743144 -0.03698950476120931 -0.04111510929847226 -0.045133403619135454 -0.04899002011714286 -0.052632529601156504 -0.05600867703752794 -0.05906846157749636 -0.0617627438952562 -0.06404580681847304 -0.06587435284613681 -0.06721043576795765 -0.06802074301449505 -0.06827969870022374 -0.06796884866804372 -0.06707988423144128 -0.06561390568419594 -0.06358409226585407 -0.06101460445511177 -0.05794262639814645 -0.05441668047364273 -0.05049780159458917 -0.046257091051478905 -0.04177586272826538 -0.037142371352015216 -0.03245091016609182 -0.02779781564085624 -0.023279689840700057 -0.018988994212663566 -0.015011792887229392 -0.011423464911441233 -0.008286548536247173 -0.005647158524950184 -0.0035332245013647164 -0.0019510831452505153 -0.0008817369884654913 -0.00027266971959699615 -2.705070315455862e-05 0.0 -0.0003978574178134639 -0.0015247526918090858 -0.0033174781714666894 -0.005713555636833789 -0.008647840348273959 -0.012052822868425626 -0.01585850635389885 -0.0199946256168843 -0.024390587119195783 -0.028977698500257207 -0.0336882040259452 -0.03845709226699307 -0.04322030990879642 -0.04791637164560228 -0.05248419397404179 -0.05686486534799745 -0.06099952426555712 -0.06483154333625198 -0.06830471545485937 -0.07136593738408352 -0.07396379168566301 -0.07605166761135736 -0.07758668882828698 -0.07853310815872105 -0.07886144168509948 -0.07855191404378321 -0.0775936063300353 -0.07598769419541856 -0.07374638477177217 -0.07089566928609699 -0.0674738072916522 -0.06353331177139253 -0.05913874801440491 -0.05436770186774684 -0.04930772068986097 -0.04405611309598174 -0.038715996451880966 -0.03339495763478287 -0.028200389441994274 -0.02323729046009309 -0.018603328383590353 -0.014386293216574277 -0.010659482004996248 -0.0074793093771406026 -0.004881275695938617 -0.0028774202304726803 -0.0014518482123561033 -0.0005568752550693422 -0.00010979748129185605 0.0 -0.0004900195175105782 -0.0018523519757642167 -0.00398843716027068 -0.006806678695321323 -0.01021989542062431 -0.014143152653890968 -0.01849432859594004 -0.02319294962436068 -0.028161747321224454 -0.03332522696798681 -0.03861134419072809 -0.04394946968321699 -0.0492720549988096 -0.054512193532114506 -0.059605468541639846 -0.0644874641755228 -0.06909601501682176 -0.07336895301759233 -0.07724686778971315 -0.08067123037298964 -0.08358764053486092 -0.08594433269670122 -0.08769578483732121 -0.08880151747182147 -0.08922987704733337 -0.08895698092080968 -0.08797045050004303 -0.0862683139679683 -0.08386243124421458 -0.08077712650391822 -0.07705201186569445 -0.07274008719049305 -0.0679096491605443 -0.06264159470815203 -0.057030136284065294 -0.05117912224693906 -0.045201412388878336 -0.039214218699592164 -0.033337243601146906 -0.02768733333182568 -0.02237579015468745 -0.017502913149353955 -0.013155101210948376 -0.00939990779821164 -0.006283394456787305 -0.003825970730244304 -0.0020201890569522094 -0.0008282895570351505 -0.00018379423468203675 0.0 -0.0005776324832933932 -0.002166340874151373 -0.004634550502096475 -0.007863328953339516 -0.011742844842368087 -0.016171423217582772 -0.021053169894465262 -0.026298446763837056 -0.0318216551144285 -0.0375423715874654 -0.043382839269992805 -0.049269420416739 -0.05512978461671281 -0.06089468074863029 -0.06649505283211843 -0.07186425917406353 -0.07693537292248925 -0.08164393969969642 -0.08592562757911382 -0.08971951604562903 -0.09296614347343317 -0.09561123109320707 -0.09760408669070939 -0.09890161231433976 -0.09946696816812033 -0.09927368125504911 -0.09830443340715786 -0.09655505449263474 -0.09403324868870105 -0.09076220213279572 -0.08677899355002122 -0.08213747903857918 -0.07690606914655362 -0.0711695129428797 -0.06502571776811446 -0.0585861060198614 -0.05197127260942799 -0.045309788640261084 -0.03873276908795442 -0.03237134375954195 -0.026350588062032915 -0.020786257482266035 -0.015778843838882207 -0.011410366202898528 -0.007739371649791176 -0.004798570429285814 -0.0025917743858063975 -0.001094011435855589 -0.0002534570573691861 0.0 -0.0006606721471187418 -0.002465152982275368 -0.0052518117973279245 -0.008875300322671805 -0.013204825407418094 -0.018121116923242017 -0.02351587896637689 -0.029288736700367822 -0.03534756583765909 -0.04160531924588235 -0.04798099155962929 -0.05439628512117488 -0.060777110988986874 -0.06705022662214703 -0.07314530018585232 -0.07899172109091808 -0.08452126823386708 -0.0896652519356726 -0.09435776798244136 -0.09853324147116974 -0.10213018116620608 -0.10508912016530324 -0.10735674475533354 -0.10888418284802782 -0.10963136507045482 -0.10956558344517045 -0.10866592203389923 -0.1069219639160756 -0.10433807459467932 -0.10093205226044255 -0.0967389503852905 -0.09180935177058147 -0.08621230622968554 -0.08003281273453722 -0.07337339524119907 -0.06635038585366701 -0.059093760656031856 -0.05174201686640554 -0.044440203337162656 -0.03733359385579456 -0.030564328854614294 -0.024264587235136012 -0.018552720629134233 -0.013526993839875904 -0.009262346427937015 -0.005805948862528115 -0.0031759742105859894 -0.0013607322479835897 -0.00032170338117707494 0.0 -0.0007389576056171356 -0.002747857292768236 -0.005836894613415796 -0.009836794781174519 -0.014595970769629422 -0.019979507700333653 -0.025865624130742542 -0.03214519342133267 -0.03871789312978376 -0.04549248166052636 -0.052382834315385464 -0.059308962499536676 -0.06619308081597855 -0.07296135283517464 -0.0795401536918875 -0.0858585299040062 -0.09184479574004857 -0.09742965775388919 -0.10254321818997739 -0.10711866836877429 -0.11108971297355341 -0.11439471395542272 -0.11697452062875818 -0.11877695036554842 -0.11975500035940528 -0.11987155574162953 -0.11909793477604341 -0.11741868024635534 -0.11483031450777026 -0.11134596939038069 -0.10699408789164655 -0.1018224895273113 -0.0958965825961174 -0.08930230529614867 -0.08214329211089547 -0.0745420864022507 -0.06663576114604154 -0.058574990867109974 -0.05051796336766266 -0.042627382521120874 -0.0350631043166648 -0.027977804746882353 -0.021509424052523436 -0.015776801927872838 -0.01087343686497284 -0.006864661312062639 -0.0037843726509517116 -0.0016354051545144233 -0.00039084364243323854 0.0 -0.0008123988400459208 -0.003013218109613503 -0.006387188485941099 -0.010742151719415435 -0.015908219623991686 -0.02173446259491896 -0.02808794003609146 -0.03484940460850564 -0.04191286395660449 -0.04918098729848511 -0.0565654897102092 -0.06398255975855677 -0.07135412389908094 -0.07860349338226691 -0.0856574825776927 -0.09244240870005697 -0.09888698367566058 -0.10491873480401817 -0.11046754861101601 -0.11546252926076116 -0.11983606315234549 -0.12352111590381318 -0.12645571220693202 -0.12858068509119996 -0.12984450120733043 -0.1302014826903974 -0.1296169090123253 -0.12806568585511113 -0.125537578489889 -0.12203616988932223 -0.11758391023089253 -0.11222099102105494 -0.10600966233940477 -0.09903241321261817 -0.09139481081114387 -0.08322225103107828 -0.07466057116678809 -0.06587078940330329 -0.057027092573344394 -0.04830953044325383 -0.03989970945019006 -0.031972255286844255 -0.02468942468727043 -0.01819294916845933 -0.012599391377374229 -0.007994326976003972 -0.004430308086466833 -0.0019250418081549724 -0.0004631406468302488 0.0 -0.0008806148689773448 -0.003260150791902398 -0.0068994911545471 -0.011586381940402414 -0.017133011699462262 -0.023375122262513395 -0.03016774952332486 -0.037384248454980236 -0.044911239033893664 -0.05264831141637659 -0.0605028260463454 -0.06839056823841426 -0.07623073752140105 -0.08394758857580165 -0.09146578692513686 -0.09871295328359513 -0.10561546129887858 -0.11210173805498964 -0.11809851707776264 -0.12353473548287433 -0.12833824186359125 -0.13244016960778265 -0.13577212932550262 -0.13827100373967838 -0.1398766944341252 -0.14053732940045416 -0.14020763242492648 -0.13885450619602888 -0.13645599938321 -0.13300708606897482 -0.12851899383540863 -0.1230247402924403 -0.116578278111111 -0.10925903170672305 -0.10117001372408929 -0.09244037859056789 -0.08322156212089936 -0.07368695826301196 -0.06402545879722688 -0.054437957944501694 -0.04512852517526784 -0.0362985051735303 -0.02813671078851624 -0.02081298291988193 -0.014469655748078895 -0.00921692013307042 -0.005127789917847235 -0.0022370318803334264 -0.0005407071345687388 0.0 -0.0009433318312016376 -0.0034870052031072047 -0.007370856370227553 -0.012363595133510628 -0.018262437899558205 -0.024889544337479003 -0.03209087214667533 -0.03973100682551277 -0.04769228902778477 -0.0558691161423572 -0.06416793720905548 -0.07250159974637227 -0.08079040506439107 -0.08895679153087661 -0.09692741943424026 -0.10462831011294711 -0.11198780864361467 -0.11893219819193178 -0.12538934997186738 -0.13128480235039094 -0.1365459434405401 -0.14109857882298166 -0.14487157846862214 -0.14779402427569538 -0.1498003423945245 -0.15082816921126976 -0.1508240230082623 -0.1497419946350434 -0.14754993244160897 -0.1442289014454943 -0.13977962616045647 -0.13422234986187576 -0.12760291027316828 -0.11999221356035507 -0.11149090385247434 -0.10222730043107481 -0.09235938598222317 -0.08207002170114217 -0.07156523781749759 -0.06106614410473397 -0.05080347902257288 -0.04100692224686237 -0.03189734513179202 -0.023675712153016282 -0.0165157053939067 -0.010555130802990215 -0.005891622602711224 -0.002578708566445828 -0.0006257645594647775 0.0 -0.0009999760628387614 -0.0036923155959562312 -0.007797510303856737 -0.013068328413682169 -0.019287424506378468 -0.02626651491219725 -0.03384158124640211 -0.041871663093021594 -0.0502329255426573 -0.058818049694501884 -0.06753004241769868 -0.07628265279336748 -0.08499440053229099 -0.09359010756100485 -0.1019953616092733 -0.11013904890013028 -0.11794830721926831 -0.1253518533178363 -0.13227541042291824 -0.13864563367176808 -0.14438601585973804 -0.1494213030424142 -0.1536739617865563 -0.15706909884663023 -0.15953166220017903 -0.1609919721982542 -0.16138386426431212 -0.16065093993599133 -0.1587457780433277 -0.15563686455247214 -0.15130874860761534 -0.1457692720755155 -0.13905010912190904 -0.1312134096406156 -0.12235160846719269 -0.11259206939543619 -0.10209462123661713 -0.09105257673100663 -0.07968656344533988 -0.06824084101841775 -0.05697303488522855 -0.04614619619363431 -0.03601591577943984 -0.026820550498465483 -0.01876894639340647 -0.01203241295576515 -0.006736537162007785 -0.0029576635186007467 -0.0007204067836303113 0.0 -0.0010501564310565654 -0.003874085547122299 -0.008176099470854644 -0.013694160650152852 -0.020199651168871888 -0.02749352443250951 -0.035405116442029635 -0.043786366016460916 -0.05251077121520139 -0.0614668756696741 -0.07055807453488466 -0.07969607572740371 -0.08880182568626953 -0.09779931544095327 -0.10661760498052499 -0.1151851080073469 -0.12343252686051523 -0.1312876194903207 -0.13867881505659937 -0.1455304464884016 -0.15176688424492935 -0.157308287579904 -0.16207522814928627 -0.16598512607738977 -0.16895747595208435 -0.1709112287076908 -0.17177081471100214 -0.17146474347979704 -0.1699325760539155 -0.16712487302183887 -0.16301103421969396 -0.1575803657100043 -0.15085022816216012 -0.14286739146737196 -0.13371524556064954 -0.12351388258570724 -0.11242445949726536 -0.10064596744131232 -0.08841471152356037 -0.07599611307894999 -0.06367830698806526 -0.051759036643397704 -0.040534667621986875 -0.030284838177428566 -0.021260665416567223 -0.013671646367440563 -0.007677537304210456 -0.0033812780062414927 -0.0008268539422113252 0.0 -0.00109321071127405 -0.004030711703456727 -0.008502614778890813 -0.014235507574652424 -0.020989872801049875 -0.02855932739890759 -0.036765467737251215 -0.04545666287800671 -0.05450154118072454 -0.06378831006419983 -0.07321782896171584 -0.08270393962063692 -0.09216668898121119 -0.10153379548389516 -0.11073428596841525 -0.11970097685083925 -0.12836458663208897 -0.1366569965607465 -0.14450581905934098 -0.15183822232726774 -0.15857596978289432 -0.16463971404128985 -0.16994463475836788 -0.17440527272637157 -0.1779320263672483 -0.1804367432480324 -0.18183042723810475 -0.1820298693534443 -0.1809569005071898 -0.178546252919938 -0.17474648179191898 -0.16952891003670484 -0.16288983903858414 -0.154859763997338 -0.14550566364390852 -0.13493873591532649 -0.12331459342766472 -0.11083694503176988 -0.09775303234588506 -0.08435077582769845 -0.07094767650238774 -0.057880776299675536 -0.045489976436706575 -0.034103515421843665 -0.024020101699265873 -0.015495441694390256 -0.008729072416573247 -0.0038570903798564645 -0.0009471878436913327 0.0 -0.001128758336242306 -0.004160217204252535 -0.008773902229028975 -0.014686241554912586 -0.021650353268037638 -0.029452014930632518 -0.037908629713923114 -0.04686312726492114 -0.05618301804799646 -0.06575335803101881 -0.07547657587630617 -0.08526526337359994 -0.09504308202417884 -0.10473781562811592 -0.11428335490225212 -0.12361318128320373 -0.13266323297243518 -0.14136583245819911 -0.14965318663865834 -0.15745174607774107 -0.16468617201899335 -0.1712741993533061 -0.1771310649298427 -0.1821650882458581 -0.18628273851236538 -0.1893852919044473 -0.1913748634474293 -0.19215259078850683 -0.19162600909630162 -0.18970917078099417 -0.18633160054891387 -0.18144046340856868 -0.17501085886626322 -0.1670494431513728 -0.15760488307283055 -0.14677117807449458 -0.13469580576819395 -0.1215797201676182 -0.10767973404042441 -0.093301773628062 -0.07879460035443892 -0.06453468040107875 -0.0509114497985703 -0.038306349445255156 -0.027074521957809194 -0.01752480256339151 -0.009905465203342302 -0.004392304676457935 -0.001083625766494025 0.0 -0.0011561976456289035 -0.004261309527905179 -0.008986528207694503 -0.015041820083241996 -0.022173183076176176 -0.030162127172017897 -0.03882045204556933 -0.047989334641162264 -0.05753256280754978 -0.0673360439924699 -0.07730040710967384 -0.08734141566998999 -0.097382562219148 -0.1073565468470273 -0.11719818894358974 -0.1268468672718524 -0.1362398428033894 -0.14531542130048458 -0.1540066788659714 -0.16224512182141948 -0.16995483563575015 -0.17705654554066202 -0.18346233003063545 -0.18908017295497787 -0.19380954521493868 -0.1975467350668919 -0.20018176253833891 -0.20160493552106837 -0.2017056673243156 -0.20038076039413474 -0.19753564117079958 -0.19309467377022874 -0.1870049109090546 -0.1792480568123013 -0.16984582120305083 -0.1588718049060533 -0.14645590202002626 -0.1327926071214791 -0.1181402647242306 -0.10282120406767425 -0.08721157478571208 -0.07173018944901119 -0.05681798005483883 -0.042917480984670686 -0.030447124043760005 