# vtk DataFile Version 3.0
vtk output
ASCII
DATASET STRUCTURED_GRID
DIMENSIONS 51 51 1
POINTS 2601 float
0.0 0.0 0.0
0.02 0.0 0.0
0.04 0.0 0.0
0.06 0.0 0.0
0.08 0.0 0.0
0.1 0.0 0.0
0.12 0.0 0.0
0.14 0.0 0.0
0.16 0.0 0.0
0.18 0.0 0.0
0.2 0.0 0.0
0.22 0.0 0.0
0.24 0.0 0.0
0.26 0.0 0.0
0.28 0.0 0.0
0.3 0.0 0.0
0.32 0.0 0.0
0.34 0.0 0.0
0.36 0.0 0.0
0.38 0.0 0.0
0.4 0.0 0.0
0.42 0.0 0.0
0.44 0.0 0.0
0.46 0.0 0.0
0.48 0.0 0.0
0.5 0.0 0.0
0.52 0.0 0.0
0.54 0.0 0.0
0.56 0.0 0.0
0.58 0.0 0.0
0.6 0.0 0.0
0.62 0.0 0.0
0.64 0.0 0.0
0.66 0.0 0.0
0.68 0.0 0.0
0.7000000000000001 0.0 0.0
0.72 0.0 0.0
0.74 0.0 0.0
0.76 0.0 0.0
0.78 0.0 0.0
0.8 0.0 0.0
0.8200000000000001 0.0 0.0
0.84 0.0 0.0
0.86 0.0 0.0
0.88 0.0 0.0
0.9 0.0 0.0
0.92 0.0 0.0
0.9400000000000001 0.0 0.0
0.96 0.0 0.0
0.98 0.0 0.0
1.0 0.0 0.0
0.0 0.02 0.0
0.02 0.02 0.0
0.04 0.02 0.0
0.06 0.02 0.0
0.08 0.02 0.0
0.1 0.02 0.0
0.12 0.02 0.0
0.14 0.02 0.0
0.16 0.02 0.0
0.18 0.02 0.0
0.2 0.02 0.0
0.22 0.02 0.0
0.24 0.02 0.0
0.26 0.02 0.0
0.28 0.02 0.0
0.3 0.02 0.0
0.32 0.02 0.0
0.34 0.02 0.0
0.36 0.02 0.0
0.38 0.02 0.0
0.4 0.02 0.0
0.42 0.02 0.0
0.44 0.02 0.0
0.46 0.02 0.0
0.48 0.02 0.0
0.5 0.02 0.0
0.52 0.02 0.0
0.54 0.02 0.0
0.56 0.02 0.0
0.58 0.02 0.0
0.6 0.02 0.0
0.62 0.02 0.0
0.64 0.02 0.0
0.66 0.02 0.0
0.68 0.02 0.0
0.7000000000000001 0.02 0.0
0.72 0.02 0.0
0.74 0.02 0.0
0.76 0.02 0.0
0.78 0.02 0.0
0.8 0.02 0.0
0.8200000000000001 0.02 0.0
0.84 0.02 0.0
0.86 0.02 0.0
0.88 0.02 0.0
0.9 0.02 0.0
0.92 0.02 0.0
0.9400000000000001 0.02 0.0
0.96 0.02 0.0
0.98 0.02 0.0
1.0 0.02 0.0
0.0 0.04 0.0
0.02 0.04 0.0
0.04 0.04 0.0
0.06 0.04 0.0
0.08 0.04 0.0
0.1 0.04 0.0
0.12 0.04 0.0
0.14 0.04 0.0
0.16 0.04 0.0
0.18 0.04 0.0
0.2 0.04 0.0
0.22 0.04 0.0
0.24 0.04 0.0
0.26 0.04 0.0
0.28 0.04 0.0
0.3 0.04 0.0
0.32 0.04 0.0
0.34 0.04 0.0
0.36 0.04 0.0
0.38 0.04 0.0
0.4 0.04 0.0
0.42 0.04 0.0
0.44 0.04 0.0
0.46 0.04 0.0
0.48 0.04 0.0
0.5 0.04 0.0
0.52 0.04 0.0
0.54 0.04 0.0
0.56 0.04 0.0
0.58 0.04 0.0
0.6 0.04 0.0
0.62 0.04 0.0
0.64 0.04 0.0
0.66 0.04 0.0
0.68 0.04 0.0
0.7000000000000001 0.04 0.0
0.72 0.04 0.0
0.74 0.04 0.0
0.76 0.04 0.0
0.78 0.04 0.0
0.8 0.04 0.0
0.8200000000000001 0.04 0.0
0.84 0.04 0.0
0.86 0.04 0.0
0.88 0.04 0.0
0.9 0.04 0.0
0.92 0.04 0.0
0.9400000000000001 0.04 0.0
0.96 0.04 0.0
0.98 0.04 0.0
1.0 0.04 0.0
0.0 0.06 0.0
0.02 0.06 0.0
0.04 0.06 0.0
0.06 0.06 0.0
0.08 0.06 0.0
0.1 0.06 0.0
0.12 0.06 0.0
0.14 0.06 0.0
0.16 0.06 0.0
0.18 0.06 0.0
0.2 0.06 0.0
0.22 0.06 0.0
0.24 0.06 0.0
0.26 0.06 0.0
0.28 0.06 0.0
0.3 0.06 0.0
0.32 0.06 0.0
0.34 0.06 0.0
0.36 0.06 0.0
0.38 0.06 0.0
0.4 0.06 0.0
0.42 0.06 0.0
0.44 0.06 0.0
0.46 0.06 0.0
0.48 0.06 0.0
0.5 0.06 0.0
0.52 0.06 0.0
0.54 0.06 0.0
0.56 0.06 0.0
0.58 0.06 0.0
0.6 0.06 0.0
0.62 0.06 0.0
0.64 0.06 0.0
0.66 0.06 0.0
0.68 0.06 0.0
0.7000000000000001 0.06 0.0
0.72 0.06 0.0
0.74 0.06 0.0
0.76 0.06 0.0
0.78 0.06 0.0
0.8 0.06 0.0
0.8200000000000001 0.06 0.0
0.84 0.06 0.0
0.86 0.06 0.0
0.88 0.06 0.0
0.9 0.06 0.0
0.92 0.06 0.0
0.9400000000000001 0.06 0.0
0.96 0.06 0.0
0.98 0.06 0.0
1.0 0.06 0.0
0.0 0.08 0.0
0.02 0.08 0.0
0.04 0.08 0.0
0.06 0.08 0.0
0.08 0.08 0.0
0.1 0.08 0.0
0.12 0.08 0.0
0.14 0.08 0.0
0.16 0.08 0.0
0.18 0.08 0.0
0.2 0.08 0.0
0.22 0.08 0.0
0.24 0.08 0.0
0.26 0.08 0.0
0.28 0.08 0.0
0.3 0.08 0.0
0.32 0.08 0.0
0.34 0.08 0.0
0.36 0.08 0.0
0.38 0.08 0.0
0.4 0.08 0.0
0.42 0.08 0.0
0.44 0.08 0.0
0.46 0.08 0.0
0.48 0.08 0.0
0.5 0.08 0.0
0.52 0.08 0.0
0.54 0.08 0.0
0.56 0.08 0.0
0.58 0.08 0.0
0.6 0.08 0.0
0.62 0.08 0.0
0.64 0.08 0.0
0.66 0.08 0.0
0.68 0.08 0.0
0.7000000000000001 0.08 0.0
0.72 0.08 0.0
0.74 0.08 0.0
0.76 0.08 0.0
0.78 0.08 0.0
0.8 0.08 0.0
0.8200000000000001 0.08 0.0
0.84 0.08 0.0
0.86 0.08 0.0
0.88 0.08 0.0
0.9 0.08 0.0
0.92 0.08 0.0
0.9400000000000001 0.08 0.0
0.96 0.08 0.0
0.98 0.08 0.0
1.0 0.08 0.0
0.0 0.1 0.0
0.02 0.1 0.0
0.04 0.1 0.0
0.06 0.1 0.0
0.08 0.1 0.0
0.1 0.1 0.0
0.12 0.1 0.0
0.14 0.1 0.0
0.16 0.1 0.0
0.18 0.1 0.0
0.2 0.1 0.0
0.22 0.1 0.0
0.24 0.1 0.0
0.26 0.1 0.0
0.28 0.1 0.0
0.3 0.1 0.0
0.32 0.1 0.0
0.34 0.1 0.0
0.36 0.1 0.0
0.38 0.1 0.0
0.4 0.1 0.0
0.42 0.1 0.0
0.44 0.1 0.0
0.46 0.1 0.0
0.48 0.1 0.0
0.5 0.1 0.0
0.52 0.1 0.0
0.54 0.1 0.0
0.56 0.1 0.0
0.58 0.1 0.0
0.6 0.1 0.0
0.62 0.1 0.0
0.64 0.1 0.0
0.66 0.1 0.0
0.68 0.1 0.0
0.7000000000000001 0.1 0.0
0.72 0.1 0.0
0.74 0.1 0.0
0.76 0.1 0.0
0.78 0.1 0.0
0.8 0.1 0.0
0.8200000000000001 0.1 0.0
0.84 0.1 0.0
0.86 0.1 0.0
0.88 0.1 0.0
0.9 0.1 0.0
0.92 0.1 0.0
0.9400000000000001 0.1 0.0
0.96 0.1 0.0
0.98 0.1 0.0
1.0 0.1 0.0
0.0 0.12 0.0
0.02 0.12 0.0
0.04 0.12 0.0
0.06 0.12 0.0
0.08 0.12 0.0
0.1 0.12 0.0
0.12 0.12 0.0
0.14 0.12 0.0
0.16 0.12 0.0
0.18 0.12 0.0
0.2 0.12 0.0
0.22 0.12 0.0
0.24 0.12 0.0
0.26 0.12 0.0
0.28 0.12 0.0
0.3 0.12 0.0
0.32 0.12 0.0
0.34 0.12 0.0
0.36 0.12 0.0
0.38 0.12 0.0
0.4 0.12 0.0
0.42 0.12 0.0
0.44 0.12 0.0
0.46 0.12 0.0
0.48 0.12 0.0
0.5 0.12 0.0
0.52 0.12 0.0
0.54 0.12 0.0
0.56 0.12 0.0
0.58 0.12 0.0
0.6 0.12 0.0
0.62 0.12 0.0
0.64 0.12 0.0
0.66 0.12 0.0
0.68 0.12 0.0
0.7000000000000001 0.12 0.0
0.72 0.12 0.0
0.74 0.12 0.0
0.76 0.12 0.0
0.78 0.12 0.0
0.8 0.12 0.0
0.8200000000000001 0.12 0.0
0.84 0.12 0.0
0.86 0.12 0.0
0.88 0.12 0.0
0.9 0.12 0.0
0.92 0.12 0.0
0.9400000000000001 0.12 0.0
0.96 0.12 0.0
0.98 0.12 0.0
1.0 0.12 0.0
0.0 0.14 0.0
0.02 0.14 0.0
0.04 0.14 0.0
0.06 0.14 0.0
0.08 0.14 0.0
0.1 0.14 0.0
0.12 0.14 0.0
0.14 0.14 0.0
0.16 0.14 0.0
0.18 0.14 0.0
0.2 0.14 0.0
0.22 0.14 0.0
0.24 0.14 0.0
0.26 0.14 0.0
0.28 0.14 0.0
0.3 0.14 0.0
0.32 0.14 0.0
0.34 0.14 0.0
0.36 0.14 0.0
0.38 0.14 0.0
0.4 0.14 0.0
0.42 0.14 0.0
0.44 0.14 0.0
0.46 0.14 0.0
0.48 0.14 0.0
0.5 0.14 0.0
0.52 0.14 0.0
0.54 0.14 0.0
0.56 0.14 0.0
0.58 0.14 0.0
0.6 0.14 0.0
0.62 0.14 0.0
0.64 0.14 0.0
0.66 0.14 0.0
0.68 0.14 0.0
0.7000000000000001 0.14 0.0
0.72 0.14 0.0
0.74 0.14 0.0
0.76 0.14 0.0
0.78 0.14 0.0
0.8 0.14 0.0
0.8200000000000001 0.14 0.0
0.84 0.14 0.0
0.86 0.14 0.0
0.88 0.14 0.0
0.9 0.14 0.0
0.92 0.14 0.0
0.9400000000000001 0.14 0.0
0.96 0.14 0.0
0.98 0.14 0.0
1.0 0.14 0.0
0.0 0.16 0.0
0.02 0.16 0.0
0.04 0.16 0.0
0.06 0.16 0.0
0.08 0.16 0.0
0.1 0.16 0.0
0.12 0.16 0.0
0.14 0.16 0.0
0.16 0.16 0.0
0.18 0.16 0.0
0.2 0.16 0.0
0.22 0.16 0.0
0.24 0.16 0.0
0.26 0.16 0.0
0.28 0.16 0.0
0.3 0.16 0.0
0.32 0.16 0.0
0.34 0.16 0.0
0.36 0.16 0.0
0.38 0.16 0.0
0.4 0.16 0.0
0.42 0.16 0.0
0.44 0.16 0.0
0.46 0.16 0.0
0.48 0.16 0.0
0.5 0.16 0.0
0.52 0.16 0.0
0.54 0.16 0.0
0.56 0.16 0.0
0.58 0.16 0.0
0.6 0.16 0.0
0.62 0.16 0.0
0.64 0.16 0.0
0.66 0.16 0.0
0.68 0.16 0.0
0.7000000000000001 0.16 0.0
0.72 0.16 0.0
0.74 0.16 0.0
0.76 0.16 0.0
0.78 0.16 0.0
0.8 0.16 0.0
0.8200000000000001 0.16 0.0
0.84 0.16 0.0
0.86 0.16 0.0
0.88 0.16 0.0
0.9 0.16 0.0
0.92 0.16 0.0
0.9400000000000001 0.16 0.0
0.96 0.16 0.0
0.98 0.16 0.0
1.0 0.16 0.0
0.0 0.18 0.0
0.02 0.18 0.0
0.04 0.18 0.0
0.06 0.18 0.0
0.08 0.18 0.0
0.1 0.18 0.0
0.12 0.18 0.0
0.14 0.18 0.0
0.16 0.18 0.0
0.18 0.18 0.0
0.2 0.18 0.0
0.22 0.18 0.0
0.24 0.18 0.0
0.26 0.18 0.0
0.28 0.18 0.0
0.3 0.18 0.0
0.32 0.18 0.0
0.34 0.18 0.0
0.36 0.18 0.0
0.38 0.18 0.0
0.4 0.18 0.0
0.42 0.18 0.0
0.44 0.18 0.0
0.46 0.18 0.0
0.48 0.18 0.0
0.5 0.18 0.0
0.52 0.18 0.0
0.54 0.18 0.0
0.56 0.18 0.0
0.58 0.18 0.0
0.6 0.18 0.0
0.62 0.18 0.0
0.64 0.18 0.0
0.66 0.18 0.0
0.68 0.18 0.0
0.7000000000000001 0.18 0.0
0.72 0.18 0.0
0.74 0.18 0.0
0.76 0.18 0.0
0.78 0.18 0.0
0.8 0.18 0.0
0.8200000000000001 0.18 0.0
0.84 0.18 0.0
0.86 0.18 0.0
0.88 0.18 0.0
0.9 0.18 0.0
0.92 0.18 0.0
0.9400000000000001 0.18 0.0
0.96 0.18 0.0
0.98 0.18 0.0
1.0 0.18 0.0
0.0 0.2 0.0
0.02 0.2 0.0
0.04 0.2 0.0
0.06 0.2 0.0
0.08 0.2 0.0
0.1 0.2 0.0
0.12 0.2 0.0
0.14 0.2 0.0
0.16 0.2 0.0
0.18 0.2 0.0
0.2 0.2 0.0
0.22 0.2 0.0
0.24 0.2 0.0
0.26 0.2 0.0
0.28 0.2 0.0
0.3 0.2 0.0
0.32 0.2 0.0
0.34 0.2 0.0
0.36 0.2 0.0
0.38 0.2 0.0
0.4 0.2 0.0
0.42 0.2 0.0
0.44 0.2 0.0
0.46 0.2 0.0
0.48 0.2 0.0
0.5 0.2 0.0
0.52 0.2 0.0
0.54 0.2 0.0
0.56 0.2 0.0
0.58 0.2 0.0
0.6 0.2 0.0
0.62 0.2 0.0
0.64 0.2 0.0
0.66 0.2 0.0
0.68 0.2 0.0
0.7000000000000001 0.2 0.0
0.72 0.2 0.0
0.74 0.2 0.0
0.76 0.2 0.0
0.78 0.2 0.0
0.8 0.2 0.0
0.8200000000000001 0.2 0.0
0.84 0.2 0.0
0.86 0.2 0.0
0.88 0.2 0.0
0.9 0.2 0.0
0.92 0.2 0.0
0.9400000000000001 0.2 0.0
0.96 0.2 0.0
0.98 0.2 0.0
1.0 0.2 0.0
0.0 0.22 0.0
0.02 0.22 0.0
0.04 0.22 0.0
0.06 0.22 0.0
0.08 0.22 0.0
0.1 0.22 0.0
0.12 0.22 0.0
0.14 0.22 0.0
0.16 0.22 0.0
0.18 0.22 0.0
0.2 0.22 0.0
0.22 0.22 0.0
0.24 0.22 0.0
0.26 0.22 0.0
0.28 0.22 0.0
0.3 0.22 0.0
0.32 0.22 0.0
0.34 0.22 0.0
0.36 0.22 0.0
0.38 0.22 0.0
0.4 0.22 0.0
0.42 0.22 0.0
0.44 0.22 0.0
0.46 0.22 0.0
0.48 0.22 0.0
0.5 0.22 0.0
0.52 0.22 0.0
0.54 0.22 0.0
0.56 0.22 0.0
0.58 0.22 0.0
0.6 0.22 0.0
0.62 0.22 0.0
0.64 0.22 0.0
0.66 0.22 0.0
0.68 0.22 0.0
0.7000000000000001 0.22 0.0
0.72 0.22 0.0
0.74 0.22 0.0
0.76 0.22 0.0
0.78 0.22 0.0
0.8 0.22 0.0
0.8200000000000001 0.22 0.0
0.84 0.22 0.0
0.86 0.22 0.0
0.88 0.22 0.0
0.9 0.22 0.0
0.92 0.22 0.0
0.9400000000000001 0.22 0.0
0.96 0.22 0.0
0.98 0.22 0.0
1.0 0.22 0.0
0.0 0.24 0.0
0.02 0.24 0.0
0.04 0.24 0.0
0.06 0.24 0.0
0.08 0.24 0.0
0.1 0.24 0.0
0.12 0.24 0.0
0.14 0.24 0.0
0.16 0.24 0.0
0.18 0.24 0.0
0.2 0.24 0.0
0.22 0.24 0.0
0.24 0.24 0.0
0.26 0.24 0.0
0.28 0.24 0.0
0.3 0.24 0.0
0.32 0.24 0.0
0.34 0.24 0.0
0.36 0.24 0.0
0.38 0.24 0.0
0.4 0.24 0.0
0.42 0.24 0.0
0.44 0.24 0.0
0.46 0.24 0.0
0.48 0.24 0.0
0.5 0.24 0.0
0.52 0.24 0.0
0.54 0.24 0.0
0.56 0.24 0.0
0.58 0.24 0.0
0.6 0.24 0.0
0.62 0.24 0.0
0.64 0.24 0.0
0.66 0.24 0.0
0.68 0.24 0.0
0.7000000000000001 0.24 0.0
0.72 0.24 0.0
0.74 0.24 0.0
0.76 0.24 0.0
0.78 0.24 0.0
0.8 0.24 0.0
0.8200000000000001 0.24 0.0
0.84 0.24 0.0
0.86 0.24 0.0
0.88 0.24 0.0
0.9 0.24 0.0
0.92 0.24 0.0
0.9400000000000001 0.24 0.0
0.96 0.24 0.0
0.98 0.24 0.0
1.0 0.24 0.0
0.0 0.26 0.0
0.02 0.26 0.0
0.04 0.26 0.0
0.06 0.26 0.0
0.08 0.26 0.0
0.1 0.26 0.0
0.12 0.26 0.0
0.14 0.26 0.0
0.16 0.26 0.0
0.18 0.26 0.0
0.2 0.26 0.0
0.22 0.26 0.0
0.24 0.26 0.0
0.26 0.26 0.0
0.28 0.26 0.0
0.3 0.26 0.0
0.32 0.26 0.0
0.34 0.26 0.0
0.36 0.26 0.0
0.38 0.26 0.0
0.4 0.26 0.0
0.42 0.26 0.0
0.44 0.26 0.0
0.46 0.26 0.0
0.48 0.26 0.0
[...]
CELL_DATA 2500
SCALARS u float 1
LOOKUP_TABLE u_cell_table
-6.2457073611545e-05 -9.107159917421514e-05 -0.00018169142740364727 -0.0003364667736025285 -0.0005393479238875549 -0.0007714500101876329 -0.001017143422300512 -0.0012658441931434207 -0.0015116647481427227 -0.0017521168967810437 -0.0019865600770715614 -0.002214821061494626 -0.0024362397697844686 -0.002649282588694337 -0.002851728694892677 -0.0030412790191041298 -0.0032162762535045304 -0.0033761435996761294 -0.0035212361453184466 -0.0036521015872306066 -0.003768567210936962 -0.0038693236498546497 -0.003952424241295511 -0.00401634151857099 -0.004060522557792648 -0.004084655584556198 -0.00408722259923274 -0.004065053096781046 -0.004014886940634696 -0.003935700462569827 -0.0038293319722141187 -0.0036986288072188267 -0.0035451781773775852 -0.003369069444669544 -0.0031705331493664126 -0.0029511164901024497 -0.0027131412243896133 -0.002458487884877252 -0.0021884797721129436 -0.001904644728881868 -0.0016096833962682747 -0.0013074502448399154 -0.0010032167707470716 -0.0007028025096717236 -0.000411439412636114 -0.00012686068482148344 0.00017573007911435678 0.0005812559631386126 0.0012492100752704684 0.0 -0.00012145645104731924 -0.00027138919605214286 -0.0005496704893557933 -0.000962816356992679 -0.0014861306438443903 -0.0020846985295448835 -0.0027257491389611646 -0.003383884104915842 -0.004041834642189219 -0.004688930371662108 -0.005318813839272632 -0.0059272811768896465 -0.006510735746567439 -0.007065422968627119 -0.0075874167177529105 -0.00807312045700647 -0.008519896027948233 -0.00892636517636047 -0.009292066864080094 -0.00961652475475287 -0.009898260743666582 -0.010134517138608272 -0.010322045438060794 -0.010458363805462324 -0.010542209929807214 -0.010572499632342363 -0.010546760367651498 -0.010460984082114983 -0.010311585550104316 -0.010097686140155512 -0.009821280860156467 -0.009485182979299569 -0.009091177975386812 -0.008640335930410487 -0.008134523736171769 -0.007577110635191468 -0.006972097992262664 -0.006323610159035136 -0.005635827524491306 -0.004914676185620529 -0.004167616497046524 -0.003405844298733362 -0.002642425606938721 -0.0018957149086364063 -0.0011845036993925271 -0.0005314606940667669 4.1089457326828655e-05 0.0004846042024713541 0.0006528738934413397 0.0 -0.00017004495404081507 -0.00044285794301891356 -0.0008944741931374638 -0.0015236628424904696 -0.0023003131695864564 -0.003182525627710931 -0.004129332389497226 -0.00510704345156222 -0.006090670333789951 -0.007062659003521579 -0.008010676109466822 -0.008925568233048478 -0.009799968858946108 -0.01062765013356482 -0.011403436669534566 -0.012123381400612386 -0.01278484331352407 -0.01338617787036513 -0.01392596279069811 -0.014402041124940918 -0.01481097502975266 -0.015148435591924653 -0.015410402766945316 -0.015594202181262753 -0.01569829941697774 -0.015720927612734983 -0.01565907700780586 -0.015509285025483897 -0.015269668694404081 -0.014940985980507176 -0.014525535746888217 -0.014025328495554453 -0.013441741297057384 -0.012776704037333681 -0.012033646220938903 -0.011217045820130488 -0.010331855086906748 -0.009383418952731398 -0.00837881359653627 -0.0073270180376858556 -0.006240846010176374 -0.00513611390616359 -0.004035519646777417 -0.002966286255759662 -0.0019659856431589818 -0.001078170576447744 -0.00036242836619081685 0.00010822302568549332 0.00025988981736757826 0.0 -0.00021034647669257493 -0.0005956030449345323 -0.0012014708656754081 -0.002013580706522295 -0.0029958091031369437 -0.004102292220542958 -0.005288058945147467 -0.006514842655926168 -0.0077526388083468505 -0.008978752858587163 -0.010176034813451161 -0.011331277249163513 -0.012434179069881944 -0.013476804901527143 -0.01445330880356975 -0.015359634886375572 -0.01619298795620302 -0.016950997772300337 -0.017630733823676862 -0.018227988848806314 -0.018737352410391768 -0.01915325299469605 -0.019471369626826277 -0.01968923472592043 -0.019805349871627114 -0.019817651414848668 -0.01972312695565275 -0.019519283451245616 -0.019205901840207748 -0.018784963239311073 -0.01825885459046529 -0.017629160160696804 -0.01689739704878479 -0.016066439587589514 -0.01514066427337209 -0.014125230725091177 -0.013025624273068906 -0.011848768093055633 -0.010603461329188688 -0.0093021385300816 -0.007960172947371563 -0.006599625773118994 -0.005247513917511212 -0.003942205313636655 -0.0027286984130992053 -0.001666274655433342 -0.0008173918543736638 -0.00024351019189395093 4.422516720222325e-05 0.0 -0.00023881313975109594 -0.0007212703392328554 -0.0014612730106677732 -0.0024296295738817594 -0.0035832792847680195 -0.004872968692697733 -0.006251103782191795 -0.007676393632407237 -0.009115216285195786 -0.010541071530310694 -0.01193336861091039 -0.013276320364639941 -0.014558098855727461 -0.015770152197127126 -0.016906484680177206 -0.017962802341685985 -0.018935516732146787 -0.019820724291109294 -0.02061341232368997 -0.021307270701493478 -0.021895405897243092 -0.022371767855906742 -0.022732386821621906 -0.02297533090964099 -0.023099275935652818 -0.02310209381028958 -0.022981113973938 -0.022734896525874945 -0.022364407706560067 -0.021872104435810207 -0.021260130393568107 -0.020529937126030184 -0.019683587932719168 -0.018724738395587335 -0.017658269569626652 -0.016489498124112975 -0.01522465701667405 -0.01387162905133994 -0.01244135985707069 -0.010947666480670524 -0.009409745639794619 -0.007851554441772088 -0.0063067415267888125 -0.00481580037113684 -0.003432397469896371 -0.0022146896483295833 -0.0012265109919535554 -0.0005123678354279162 -7.779391112006638e-05 0.0 -0.0002539338943259325 -0.000816418870541561 -0.0016706631798128397 -0.0027728959122910995 -0.00407247194334669 -0.00551623140981936 -0.007053893645799822 -0.008641459580284406 -0.010242434038608219 -0.011827645003510046 -0.01337452832048973 -0.014866240405530112 -0.016290677795527717 -0.017639329606429034 -0.018906004201438537 -0.020085551267432403 -0.021172755205212862 -0.022161556352047068 -0.02304477666057915 -0.02381453832222006 -0.02446340260079633 -0.024985770956693652 -0.025378582858809326 -0.025640557009695544 -0.025770463446002 -0.02576611221423709 -0.025625229476987803 -0.025347248721539987 -0.024933809825787433 -0.024387346588303587 -0.02370965458585298 -0.022902245069884804 -0.021967692493549247 -0.020910072218931857 -0.019734235604736295 -0.018445618906164328 -0.01705085595617042 -0.01555910757181772 -0.013982210830972345 -0.01233627607192301 -0.010641486278499633 -0.008925771499980521 -0.007223345731108518 -0.005580018551413752 -0.0040478206192053005 -0.0026887287930276527 -0.001560004456124665 -0.0007087711271991039 -0.00015219391617968503 0.0 -0.00025618529395669647 -0.0008819715806444052 -0.0018320106672584766 -0.0030491627451499324 -0.004474787193113396 -0.006050952203755741 -0.007724010680682757 -0.009447178922661687 -0.011181674906631026 -0.012896829403981 -0.014569500916835572 -0.016182996770871975 -0.01772556014174379 -0.019188623359252338 -0.020565117966453876 -0.021848159603624698 -0.02303027718427436 -0.024103208113741677 -0.025058217490041626 -0.025886914317345064 -0.026582409906052706 -0.027140285854084276 -0.02755856811843444 -0.027836403785930545 -0.027972383599229565 -0.027964143761707996 -0.027809742083285925 -0.027509235031470222 -0.027064529805122237 -0.026477767083070904 -0.02575039280586219 -0.024883952528597243 -0.023881219450846987 -0.022746143757511703 -0.021483304231300425 -0.020098076836593468 -0.018597765124718238 -0.016992212404311573 -0.015294724902217815 -0.0135221426030083 -0.011697130599212242 -0.009847966267074081 -0.008012304865209291 -0.006234824429653222 -0.00457117207086094 -0.0030800328870241706 -0.0018230689481590122 -0.0008500929531213064 -0.00020238337099917457 0.0 -0.0002473287138786517 -0.0009220105679088192 -0.00195215518746957 -0.003268615322111441 -0.004804539512242389 -0.006496387270233062 -0.008286555963301332 -0.010125518428232297 -0.011972961325560322 -0.013797841590412134 -0.015577482248298273 -0.01729583719691038 -0.01894127643311107 -0.02050437464670499 -0.021976223769521377 -0.02334755405548957 -0.02460863547182948 -0.02574969613593142 -0.026761598298194397 -0.02763663531442891 -0.028369293958673 -0.02895656144371994 -0.029397256140407065 -0.029690480158611587 -0.029834342700124195 -0.029826250749559524 -0.029664564265510902 -0.029349749676572535 -0.028883658354946266 -0.028267918375888677 -0.027503494535210893 -0.026591701038331236 -0.02553502415434733 -0.024336927102543964 -0.023001589759783874 -0.02153460397503189 -0.019943849131587338 -0.018240257482039935 -0.016437887129107816 -0.014555223350958884 -0.012615467350540617 -0.010649163981136828 -0.008693607090474216 -0.006796261756442811 -0.005011237478388938 -0.003401133970712032 -0.002028215087069099 -0.000954321865179561 -0.00023810831128104364 0.0 -0.0002298636304735809 -0.0009426148113931363 -0.0020409219013896728 -0.0034446876015566978 -0.005078727968308919 -0.006873448187196718 -0.00876714466665561 -0.010708012085212168 -0.012655062473220971 -0.014577712265904302 -0.01645406736533722 -0.018268338004309014 -0.020008054138796465 -0.02166184298480863 -0.023218252414454216 -0.02466565627688907 -0.02599284785905629 -0.02718979713876115 -0.02824823269126088 -0.02916200046519391 -0.02992720441834279 -0.030541906536800414 -0.031005120566158378 -0.031315431446556026 -0.031470334970856634 -0.031467100243262006 -0.03130439422060575 -0.030982844535122425 -0.03050386404412714 -0.029868226087217842 -0.029076094924457986 -0.028128150469578218 -0.027026240734268056 -0.025773246711679642 -0.0243732524453901 -0.02283232025883771 -0.02115929555615702 -0.019365978924741328 -0.01746766370916092 -0.015483531902689966 -0.013438348808013176 -0.011362874273202473 -0.00929644294060734 -0.007286151398041358 -0.005389156508678794 -0.0036684539254911645 -0.002193284287053802 -0.0010334356075276877 -0.0002656247811672237 0.0 -0.00020661295769197315 -0.000950684626978124 -0.002109379824902583 -0.003592190217872574 -0.005315671545681204 -0.007204248813794232 -0.00919258125789106 -0.011227346606962257 -0.013267593762439975 -0.015283378596691847 -0.017253035777501757 -0.019159880265343612 -0.0209893465253381 -0.02272731171651285 -0.024359806498182944 -0.025873704857635998 -0.027257671156976155 -0.028502751063606113 -0.029602422894220798 -0.03055231090339774 -0.03134977443277501 -0.03199329124195545 -0.03248149052113809 -0.03281220816580364 -0.03298243090020301 -0.032989441502564415 -0.032832096815052114 -0.03251074489649602 -0.03202580446012977 -0.03137672317069554 -0.030562500421999695 -0.029582935339464756 -0.028439226179890635 -0.027134021893934712 -0.025671786633949353 -0.02405951866824282 -0.022307076453540062 -0.020427333374867674 -0.018436343856312765 -0.01635440143437272 -0.014206794096590406 -0.012025759314625111 -0.009851010652354227 -0.007731978173772179 -0.005726599823405372 -0.003902369967851871 -0.0023326591336852768 -0.0010982639741888335 -0.0002876026106353589 0.0 -0.00018035931934462773 -0.0009528589050906084 -0.002168119133305537 -0.003725380031360321 -0.005533263103982511 -0.007510853406524369 -0.009590023798146758 -0.01171667707322019 -0.013850058602756914 -0.015960224232579014 -0.018024437192320136 -0.02002368920601904 -0.02194038127296421 -0.02375761951670918 -0.02545981603379131 -0.027033779261330167 -0.028469445294004348 -0.029759829263807262 -0.030900350242034767 -0.03188800730341056 -0.03272072416168709 -0.033396770366900336 -0.033914089298903216 -0.03426982548502211 -0.034460651255246375 -0.03448384886617717 -0.034338046304244134 -0.03402261629827807 -0.03353632805346809 -0.032876905099561766 -0.03204206827047901 -0.031030890165126807 -0.02984436513031427 -0.02848551853212889 -0.026959746649029746 -0.025275172048048484 -0.023442697147803532 -0.02147593951013088 -0.019391745240156515 -0.017210977357435427 -0.01496000381580025 -0.01267179560996114 -0.010387914463508304 -0.008158989411425207 -0.0060461892765323036 -0.00411986064930749 -0.0024601204604172045 -0.001155944730373249 -0.0003064999670860959 0.0 -0.00015352199543411827 -0.0009546508178672906 -0.0022260043075538667 -0.003856574956289823 -0.0057476932248494966 -0.007814068548344174 -0.009985651718138703 -0.012207824986343844 -0.014439413946972112 -0.016649104467523244 -0.018811519528829743 -0.02090424100581225 -0.022906528071736217 -0.024799618048779844 -0.026567807387886236 -0.028199310613754087 -0.029686250426768375 -0.031023767323845063 -0.03220876492145619 -0.03323889719383322 -0.03411202272522063 -0.0348258815859651 -0.035377738913821316 -0.03576420657735649 -0.03598165153578114 -0.03602697459809646 -0.03589783089492619 -0.03559182552063102 -0.03510560025886499 -0.034435138658881745 -0.03357725003573623 -0.032530894678463075 -0.03129757255336529 -0.02988128741685918 -0.02828861497066862 -0.02652872329191098 -0.0246132061870083 -0.02255620682032636 -0.0203750081452691 -0.018091219493662224 -0.01573200433863449 -0.013331819719038674 -0.010933650499874093 -0.008590701116335902 -0.0063666459464898064 -0.0043364893743902235 -0.0025858385825616803 -0.001212744121054857 -0.00032362170702940736 0.0 -0.00012786586611024462 -0.0009599784498051181 -0.0022896426383056307 -0.003995692479066117 -0.005972974774766761 -0.008132746457036955 -0.01040341987641871 -0.012729338446226195 -0.01506754618510251 -0.01738369757418818 -0.01964854560183492 -0.021836037653361406 -0.0239231590723994 -0.025890827897126635 -0.02772477154663649 -0.029415567062302854 -0.030957661158668832 -0.03234781014212315 -0.03358364439469662 -0.034662846746840795 -0.03558290669862312 -0.036341023078230526 -0.03693387804583439 -0.037357505184099006 -0.03760757987557885 -0.03767988212125164 -0.03757025553298318 -0.037274000994336004 -0.03678566725980518 -0.036100060831002964 -0.03521391328330083 -0.03412690459752409 -0.032841660809724234 -0.03136340224236049 -0.02969972230215741 -0.027860399027578184 -0.025857319024784983 -0.023704817802801877 -0.021420590866313517 -0.01902688504074213 -0.016552010936491914 -0.01403181863798823 -0.011511452276594666 -0.009046519980273442 -0.0067043659198114305 -0.004564314623143121 -0.002718580655522858 -0.0012730679567781007 -0.00034052008333754344 0.0 -0.0001043337040092191 -0.0009711573610232459 -0.002363620978896036 -0.004150606988859599 -0.0062211691037335135 -0.00848352643291635 -0.01086413606854159 -0.013304988781589349 -0.015759626555512544 -0.01818930355857721 -0.020560534145543874 -0.022844425113126746 -0.025017257260255915 -0.027061252285849276 -0.028964591620787662 -0.030720363084734633 -0.03232478784982656 -0.033775435050468205 -0.035070029087836005 -0.03620600747752094 -0.03718049421397225 -0.03799019531880928 -0.03863107185347042 -0.039098125822905075 -0.03938560068826393 -0.039487345039281044 -0.039396869108106934 -0.03910724663448458 -0.038611639766459906 -0.03790472549339908 -0.03698414627697175 -0.03585094707717084 -0.034509064783619564 -0.03296468950969347 -0.03122590924229155 -0.029302581279173127 -0.027206495148732364 -0.024952026990704 -0.022557190390514098 -0.020044976619268205 -0.017444823089791887 -0.014794334724057237 -0.012140894784917262 -0.009543282083084482 -0.0070726876426577615 -0.004813756539339332 -0.002865198212633412 -0.0013409185747810057 -0.0003586945509469314 0.0 -8.310719233910939e-05 -0.0009893556241238278 -0.0024512811316251206 -0.0043279773557323735 -0.006502891995562274 -0.008880788213240506 -0.011384888695169935 -0.013953056270766581 -0.016533808222234596 -0.019083444685459493 -0.021564909139251118 -0.02394801845315632 -0.026210041354833975 -0.028335616695794926 -0.03031557546014911 -0.03214495232228451 -0.033820896284332415 -0.03534113436161259 -0.036703232550134225 -0.0379044216122118 -0.038941496568863455 -0.039810447894765094 -0.0405059556103849 -0.04102120696070668 -0.04134825281504592 -0.041478579860859024 -0.04140352894984454 -0.04111476169674872 -0.04060526314909585 -0.03987072807135241 -0.038910412752680625 -0.037726859336224924 -0.03632497659032571 -0.034711322989778706 -0.03289386150924869 -0.030882059114982513 -0.028687341382009734 -0.026323950821192675 -0.023810129424212442 -0.02116951335209282 -0.01843278007993433 -0.01563942846650825 -0.012839625332671873 -0.01009574437417204 -0.00748369230321915 -0.005093845754507072 -0.0030320588937525735 -0.0014197527524949646 -0.00038014562145937997 0.0 -6.397150179627924e-05 -0.0010153713933187508 -0.002555713222209542 -0.004534098697680406 -0.006827755368885352 -0.009336652001683002 -0.011978915352927529 -0.014686569965339307 -0.017402309467449383 -0.020077947953828536 -0.02267433032019696 -0.02516172178156155 -0.02751959794721777 -0.029735294616545043 -0.031801747620310614 -0.0337150598525579 -0.03547261948260858 -0.03707206363297877 -0.03851087588775528 -0.03978613617897296 -0.04089403861277484 -0.04182919063255238 -0.04258412457060611 -0.04314947580658988 -0.04351479928328801 -0.043669535020855195 -0.0436037907497227 -0.04330913621829485 -0.04277964552958289 -0.04201281319920327 -0.04100963022671046 -0.03977372466109325 -0.038310310019017094 -0.036625639628646456 -0.03472700990069574 -0.0326231065149014 -0.030324668672332945 -0.027845507962065967 -0.025203825602188416 -0.022423809554182605 -0.01953746656272976 -0.01658659843413853 -0.013624661000699938 -0.010718384302123195 -0.007949018355257685 -0.0054134532174881025 -0.0032250349222637384 -0.001512743789025041 -0.00040699274038773236 0.0 -4.694678052626338e-05 -0.0010505407112584876 -0.002680647513907765 -0.004775507270917356 -0.0072046071339076975 -0.009861089652080912 -0.012656030516508071 -0.015514497651223274 -0.018373534139197113 -0.021181774234697442 -0.023899698055929584 -0.026499340545635058 -0.028962778352236745 -0.03127955499369759 -0.033443820027422216 -0.03545201797145533 -0.037301516171670976 -0.03898996782081588 -0.040514869149331424 -0.04187286946880686 -0.043058815935320946 -0.04406496730395909 -0.04488094978575574 -0.04549465465298892 -0.04589364812487057 -0.04606642827706003 -0.04600329017468694 -0.045697046405202814 -0.04514370824744907 -0.04434272717114031 -0.04329640257712455 -0.04200874707957054 -0.04048457655953155 -0.038729241608065804 -0.03674884786073442 -0.034550773648097034 -0.032144524151785446 -0.02954298021222755 -0.026764001473652873 -0.023832306763124037 -0.02078152895549491 -0.017656254542556683 -0.014513880960198022 -0.011426155516549392 -0.00848046913506326 -0.005780944300788262 -0.00344915533632257 -0.0016220319277291456 -0.00044086027699941 0.0 -3.306561883412065e-05 -0.0010975680165251805 -0.002831062936269817 -0.005059266732710864 -0.007641666742416567 -0.010462297579321208 -0.013423655169693793 -0.016443617298299247 -0.019454601617577102 -0.022403708853767204 -0.02525244804610982 -0.02797514779875033 -0.030556085753764634 -0.0329861339916225 -0.035259893982193785 -0.03737386688680353 -0.03932552494701349 -0.04111268195853613 -0.04273259439952563 -0.04418069693957993 -0.04544943546268668 -0.04652790413739756 -0.04740269310030463 -0.04805964334991145 -0.04848564980461434 -0.04866982295596087 -0.04860402822819182 -0.048283202198972267 -0.0477055080378495 -0.04687198411745744 -0.04578556491641935 -0.044449945243129056 -0.04286889905876097 -0.04104620839246179 -0.038986015230803514 -0.03669353955499404 -0.03417627077833196 -0.03144563400978879 -0.02851898180513169 -0.025421740537863537 -0.022189556156400222 -0.018870314888373856 -0.01552594207951317 -0.012233959533082988 -0.009088818647484825 -0.00620298979792359 -0.003707368789413322 -0.001748193474969521 -0.0004818855661039447 0.0 -2.5096870724753914e-05 -0.0011611007484442714 -0.003013435110399836 -0.0053930099511910815 -0.008146697781307121 -0.011147394151498994 -0.014288244968923681 -0.017480540615466382 -0.02065351455746308 -0.02375413649633143 -0.026745591731881915 -0.029604218050099877 -0.032315653794346505 -0.03487131064857141 -0.03726592273253159 -0.03949618230900674 -0.04155986463052763 -0.043454745229806156 -0.04517705705377231 -0.046719900687605904 -0.048072429282952765 -0.04922044979887145 -0.05014835246648695 -0.05084146958240865 -0.051287762967304716 -0.051478412444713476 -0.051407749210140