# vtk DataFile Version 3.0
vtk output
ASCII
DATASET STRUCTURED_GRID
DIMENSIONS 51 51 1
POINTS 2601 float
0.0 0.0 0.0
0.02 0.0 0.0
0.04 0.0 0.0
0.06 0.0 0.0
0.08 0.0 0.0
0.1 0.0 0.0
0.12 0.0 0.0
0.14 0.0 0.0
0.16 0.0 0.0
0.18 0.0 0.0
0.2 0.0 0.0
0.22 0.0 0.0
0.24 0.0 0.0
0.26 0.0 0.0
0.28 0.0 0.0
0.3 0.0 0.0
0.32 0.0 0.0
0.34 0.0 0.0
0.36 0.0 0.0
0.38 0.0 0.0
0.4 0.0 0.0
0.42 0.0 0.0
0.44 0.0 0.0
0.46 0.0 0.0
0.48 0.0 0.0
0.5 0.0 0.0
0.52 0.0 0.0
0.54 0.0 0.0
0.56 0.0 0.0
0.58 0.0 0.0
0.6 0.0 0.0
0.62 0.0 0.0
0.64 0.0 0.0
0.66 0.0 0.0
0.68 0.0 0.0
0.7000000000000001 0.0 0.0
0.72 0.0 0.0
0.74 0.0 0.0
0.76 0.0 0.0
0.78 0.0 0.0
0.8 0.0 0.0
0.8200000000000001 0.0 0.0
0.84 0.0 0.0
0.86 0.0 0.0
0.88 0.0 0.0
0.9 0.0 0.0
0.92 0.0 0.0
0.9400000000000001 0.0 0.0
0.96 0.0 0.0
0.98 0.0 0.0
1.0 0.0 0.0
0.0 0.02 0.0
0.02 0.02 0.0
0.04 0.02 0.0
0.06 0.02 0.0
0.08 0.02 0.0
0.1 0.02 0.0
0.12 0.02 0.0
0.14 0.02 0.0
0.16 0.02 0.0
0.18 0.02 0.0
0.2 0.02 0.0
0.22 0.02 0.0
0.24 0.02 0.0
0.26 0.02 0.0
0.28 0.02 0.0
0.3 0.02 0.0
0.32 0.02 0.0
0.34 0.02 0.0
0.36 0.02 0.0
0.38 0.02 0.0
0.4 0.02 0.0
0.42 0.02 0.0
0.44 0.02 0.0
0.46 0.02 0.0
0.48 0.02 0.0
0.5 0.02 0.0
0.52 0.02 0.0
0.54 0.02 0.0
0.56 0.02 0.0
0.58 0.02 0.0
0.6 0.02 0.0
0.62 0.02 0.0
0.64 0.02 0.0
0.66 0.02 0.0
0.68 0.02 0.0
0.7000000000000001 0.02 0.0
0.72 0.02 0.0
0.74 0.02 0.0
0.76 0.02 0.0
0.78 0.02 0.0
0.8 0.02 0.0
0.8200000000000001 0.02 0.0
0.84 0.02 0.0
0.86 0.02 0.0
0.88 0.02 0.0
0.9 0.02 0.0
0.92 0.02 0.0
0.9400000000000001 0.02 0.0
0.96 0.02 0.0
0.98 0.02 0.0
1.0 0.02 0.0
0.0 0.04 0.0
0.02 0.04 0.0
0.04 0.04 0.0
0.06 0.04 0.0
0.08 0.04 0.0
0.1 0.04 0.0
0.12 0.04 0.0
0.14 0.04 0.0
0.16 0.04 0.0
0.18 0.04 0.0
0.2 0.04 0.0
0.22 0.04 0.0
0.24 0.04 0.0
0.26 0.04 0.0
0.28 0.04 0.0
0.3 0.04 0.0
0.32 0.04 0.0
0.34 0.04 0.0
0.36 0.04 0.0
0.38 0.04 0.0
0.4 0.04 0.0
0.42 0.04 0.0
0.44 0.04 0.0
0.46 0.04 0.0
0.48 0.04 0.0
0.5 0.04 0.0
0.52 0.04 0.0
0.54 0.04 0.0
0.56 0.04 0.0
0.58 0.04 0.0
0.6 0.04 0.0
0.62 0.04 0.0
0.64 0.04 0.0
0.66 0.04 0.0
0.68 0.04 0.0
0.7000000000000001 0.04 0.0
0.72 0.04 0.0
0.74 0.04 0.0
0.76 0.04 0.0
0.78 0.04 0.0
0.8 0.04 0.0
0.8200000000000001 0.04 0.0
0.84 0.04 0.0
0.86 0.04 0.0
0.88 0.04 0.0
0.9 0.04 0.0
0.92 0.04 0.0
0.9400000000000001 0.04 0.0
0.96 0.04 0.0
0.98 0.04 0.0
1.0 0.04 0.0
0.0 0.06 0.0
0.02 0.06 0.0
0.04 0.06 0.0
0.06 0.06 0.0
0.08 0.06 0.0
0.1 0.06 0.0
0.12 0.06 0.0
0.14 0.06 0.0
0.16 0.06 0.0
0.18 0.06 0.0
0.2 0.06 0.0
0.22 0.06 0.0
0.24 0.06 0.0
0.26 0.06 0.0
0.28 0.06 0.0
0.3 0.06 0.0
0.32 0.06 0.0
0.34 0.06 0.0
0.36 0.06 0.0
0.38 0.06 0.0
0.4 0.06 0.0
0.42 0.06 0.0
0.44 0.06 0.0
0.46 0.06 0.0
0.48 0.06 0.0
0.5 0.06 0.0
0.52 0.06 0.0
0.54 0.06 0.0
0.56 0.06 0.0
0.58 0.06 0.0
0.6 0.06 0.0
0.62 0.06 0.0
0.64 0.06 0.0
0.66 0.06 0.0
0.68 0.06 0.0
0.7000000000000001 0.06 0.0
0.72 0.06 0.0
0.74 0.06 0.0
0.76 0.06 0.0
0.78 0.06 0.0
0.8 0.06 0.0
0.8200000000000001 0.06 0.0
0.84 0.06 0.0
0.86 0.06 0.0
0.88 0.06 0.0
0.9 0.06 0.0
0.92 0.06 0.0
0.9400000000000001 0.06 0.0
0.96 0.06 0.0
0.98 0.06 0.0
1.0 0.06 0.0
0.0 0.08 0.0
0.02 0.08 0.0
0.04 0.08 0.0
0.06 0.08 0.0
0.08 0.08 0.0
0.1 0.08 0.0
0.12 0.08 0.0
0.14 0.08 0.0
0.16 0.08 0.0
0.18 0.08 0.0
0.2 0.08 0.0
0.22 0.08 0.0
0.24 0.08 0.0
0.26 0.08 0.0
0.28 0.08 0.0
0.3 0.08 0.0
0.32 0.08 0.0
0.34 0.08 0.0
0.36 0.08 0.0
0.38 0.08 0.0
0.4 0.08 0.0
0.42 0.08 0.0
0.44 0.08 0.0
0.46 0.08 0.0
0.48 0.08 0.0
0.5 0.08 0.0
0.52 0.08 0.0
0.54 0.08 0.0
0.56 0.08 0.0
0.58 0.08 0.0
0.6 0.08 0.0
0.62 0.08 0.0
0.64 0.08 0.0
0.66 0.08 0.0
0.68 0.08 0.0
0.7000000000000001 0.08 0.0
0.72 0.08 0.0
0.74 0.08 0.0
0.76 0.08 0.0
0.78 0.08 0.0
0.8 0.08 0.0
0.8200000000000001 0.08 0.0
0.84 0.08 0.0
0.86 0.08 0.0
0.88 0.08 0.0
0.9 0.08 0.0
0.92 0.08 0.0
0.9400000000000001 0.08 0.0
0.96 0.08 0.0
0.98 0.08 0.0
1.0 0.08 0.0
0.0 0.1 0.0
0.02 0.1 0.0
0.04 0.1 0.0
0.06 0.1 0.0
0.08 0.1 0.0
0.1 0.1 0.0
0.12 0.1 0.0
0.14 0.1 0.0
0.16 0.1 0.0
0.18 0.1 0.0
0.2 0.1 0.0
0.22 0.1 0.0
0.24 0.1 0.0
0.26 0.1 0.0
0.28 0.1 0.0
0.3 0.1 0.0
0.32 0.1 0.0
0.34 0.1 0.0
0.36 0.1 0.0
0.38 0.1 0.0
0.4 0.1 0.0
0.42 0.1 0.0
0.44 0.1 0.0
0.46 0.1 0.0
0.48 0.1 0.0
0.5 0.1 0.0
0.52 0.1 0.0
0.54 0.1 0.0
0.56 0.1 0.0
0.58 0.1 0.0
0.6 0.1 0.0
0.62 0.1 0.0
0.64 0.1 0.0
0.66 0.1 0.0
0.68 0.1 0.0
0.7000000000000001 0.1 0.0
0.72 0.1 0.0
0.74 0.1 0.0
0.76 0.1 0.0
0.78 0.1 0.0
0.8 0.1 0.0
0.8200000000000001 0.1 0.0
0.84 0.1 0.0
0.86 0.1 0.0
0.88 0.1 0.0
0.9 0.1 0.0
0.92 0.1 0.0
0.9400000000000001 0.1 0.0
0.96 0.1 0.0
0.98 0.1 0.0
1.0 0.1 0.0
0.0 0.12 0.0
0.02 0.12 0.0
0.04 0.12 0.0
0.06 0.12 0.0
0.08 0.12 0.0
0.1 0.12 0.0
0.12 0.12 0.0
0.14 0.12 0.0
0.16 0.12 0.0
0.18 0.12 0.0
0.2 0.12 0.0
0.22 0.12 0.0
0.24 0.12 0.0
0.26 0.12 0.0
0.28 0.12 0.0
0.3 0.12 0.0
0.32 0.12 0.0
0.34 0.12 0.0
0.36 0.12 0.0
0.38 0.12 0.0
0.4 0.12 0.0
0.42 0.12 0.0
0.44 0.12 0.0
0.46 0.12 0.0
0.48 0.12 0.0
0.5 0.12 0.0
0.52 0.12 0.0
0.54 0.12 0.0
0.56 0.12 0.0
0.58 0.12 0.0
0.6 0.12 0.0
0.62 0.12 0.0
0.64 0.12 0.0
0.66 0.12 0.0
0.68 0.12 0.0
0.7000000000000001 0.12 0.0
0.72 0.12 0.0
0.74 0.12 0.0
0.76 0.12 0.0
0.78 0.12 0.0
0.8 0.12 0.0
0.8200000000000001 0.12 0.0
0.84 0.12 0.0
0.86 0.12 0.0
0.88 0.12 0.0
0.9 0.12 0.0
0.92 0.12 0.0
0.9400000000000001 0.12 0.0
0.96 0.12 0.0
0.98 0.12 0.0
1.0 0.12 0.0
0.0 0.14 0.0
0.02 0.14 0.0
0.04 0.14 0.0
0.06 0.14 0.0
0.08 0.14 0.0
0.1 0.14 0.0
0.12 0.14 0.0
0.14 0.14 0.0
0.16 0.14 0.0
0.18 0.14 0.0
0.2 0.14 0.0
0.22 0.14 0.0
0.24 0.14 0.0
0.26 0.14 0.0
0.28 0.14 0.0
0.3 0.14 0.0
0.32 0.14 0.0
0.34 0.14 0.0
0.36 0.14 0.0
0.38 0.14 0.0
0.4 0.14 0.0
0.42 0.14 0.0
0.44 0.14 0.0
0.46 0.14 0.0
0.48 0.14 0.0
0.5 0.14 0.0
0.52 0.14 0.0
0.54 0.14 0.0
0.56 0.14 0.0
0.58 0.14 0.0
0.6 0.14 0.0
0.62 0.14 0.0
0.64 0.14 0.0
0.66 0.14 0.0
0.68 0.14 0.0
0.7000000000000001 0.14 0.0
0.72 0.14 0.0
0.74 0.14 0.0
0.76 0.14 0.0
0.78 0.14 0.0
0.8 0.14 0.0
0.8200000000000001 0.14 0.0
0.84 0.14 0.0
0.86 0.14 0.0
0.88 0.14 0.0
0.9 0.14 0.0
0.92 0.14 0.0
0.9400000000000001 0.14 0.0
0.96 0.14 0.0
0.98 0.14 0.0
1.0 0.14 0.0
0.0 0.16 0.0
0.02 0.16 0.0
0.04 0.16 0.0
0.06 0.16 0.0
0.08 0.16 0.0
0.1 0.16 0.0
0.12 0.16 0.0
0.14 0.16 0.0
0.16 0.16 0.0
0.18 0.16 0.0
0.2 0.16 0.0
0.22 0.16 0.0
0.24 0.16 0.0
0.26 0.16 0.0
0.28 0.16 0.0
0.3 0.16 0.0
0.32 0.16 0.0
0.34 0.16 0.0
0.36 0.16 0.0
0.38 0.16 0.0
0.4 0.16 0.0
0.42 0.16 0.0
0.44 0.16 0.0
0.46 0.16 0.0
0.48 0.16 0.0
0.5 0.16 0.0
0.52 0.16 0.0
0.54 0.16 0.0
0.56 0.16 0.0
0.58 0.16 0.0
0.6 0.16 0.0
0.62 0.16 0.0
0.64 0.16 0.0
0.66 0.16 0.0
0.68 0.16 0.0
0.7000000000000001 0.16 0.0
0.72 0.16 0.0
0.74 0.16 0.0
0.76 0.16 0.0
0.78 0.16 0.0
0.8 0.16 0.0
0.8200000000000001 0.16 0.0
0.84 0.16 0.0
0.86 0.16 0.0
0.88 0.16 0.0
0.9 0.16 0.0
0.92 0.16 0.0
0.9400000000000001 0.16 0.0
0.96 0.16 0.0
0.98 0.16 0.0
1.0 0.16 0.0
0.0 0.18 0.0
0.02 0.18 0.0
0.04 0.18 0.0
0.06 0.18 0.0
0.08 0.18 0.0
0.1 0.18 0.0
0.12 0.18 0.0
0.14 0.18 0.0
0.16 0.18 0.0
0.18 0.18 0.0
0.2 0.18 0.0
0.22 0.18 0.0
0.24 0.18 0.0
0.26 0.18 0.0
0.28 0.18 0.0
0.3 0.18 0.0
0.32 0.18 0.0
0.34 0.18 0.0
0.36 0.18 0.0
0.38 0.18 0.0
0.4 0.18 0.0
0.42 0.18 0.0
0.44 0.18 0.0
0.46 0.18 0.0
0.48 0.18 0.0
0.5 0.18 0.0
0.52 0.18 0.0
0.54 0.18 0.0
0.56 0.18 0.0
0.58 0.18 0.0
0.6 0.18 0.0
0.62 0.18 0.0
0.64 0.18 0.0
0.66 0.18 0.0
0.68 0.18 0.0
0.7000000000000001 0.18 0.0
0.72 0.18 0.0
0.74 0.18 0.0
0.76 0.18 0.0
0.78 0.18 0.0
0.8 0.18 0.0
0.8200000000000001 0.18 0.0
0.84 0.18 0.0
0.86 0.18 0.0
0.88 0.18 0.0
0.9 0.18 0.0
0.92 0.18 0.0
0.9400000000000001 0.18 0.0
0.96 0.18 0.0
0.98 0.18 0.0
1.0 0.18 0.0
0.0 0.2 0.0
0.02 0.2 0.0
0.04 0.2 0.0
0.06 0.2 0.0
0.08 0.2 0.0
0.1 0.2 0.0
0.12 0.2 0.0
0.14 0.2 0.0
0.16 0.2 0.0
0.18 0.2 0.0
0.2 0.2 0.0
0.22 0.2 0.0
0.24 0.2 0.0
0.26 0.2 0.0
0.28 0.2 0.0
0.3 0.2 0.0
0.32 0.2 0.0
0.34 0.2 0.0
0.36 0.2 0.0
0.38 0.2 0.0
0.4 0.2 0.0
0.42 0.2 0.0
0.44 0.2 0.0
0.46 0.2 0.0
0.48 0.2 0.0
0.5 0.2 0.0
0.52 0.2 0.0
0.54 0.2 0.0
0.56 0.2 0.0
0.58 0.2 0.0
0.6 0.2 0.0
0.62 0.2 0.0
0.64 0.2 0.0
0.66 0.2 0.0
0.68 0.2 0.0
0.7000000000000001 0.2 0.0
0.72 0.2 0.0
0.74 0.2 0.0
0.76 0.2 0.0
0.78 0.2 0.0
0.8 0.2 0.0
0.8200000000000001 0.2 0.0
0.84 0.2 0.0
0.86 0.2 0.0
0.88 0.2 0.0
0.9 0.2 0.0
0.92 0.2 0.0
0.9400000000000001 0.2 0.0
0.96 0.2 0.0
0.98 0.2 0.0
1.0 0.2 0.0
0.0 0.22 0.0
0.02 0.22 0.0
0.04 0.22 0.0
0.06 0.22 0.0
0.08 0.22 0.0
0.1 0.22 0.0
0.12 0.22 0.0
0.14 0.22 0.0
0.16 0.22 0.0
0.18 0.22 0.0
0.2 0.22 0.0
0.22 0.22 0.0
0.24 0.22 0.0
0.26 0.22 0.0
0.28 0.22 0.0
0.3 0.22 0.0
0.32 0.22 0.0
0.34 0.22 0.0
0.36 0.22 0.0
0.38 0.22 0.0
0.4 0.22 0.0
0.42 0.22 0.0
0.44 0.22 0.0
0.46 0.22 0.0
0.48 0.22 0.0
0.5 0.22 0.0
0.52 0.22 0.0
0.54 0.22 0.0
0.56 0.22 0.0
0.58 0.22 0.0
0.6 0.22 0.0
0.62 0.22 0.0
0.64 0.22 0.0
0.66 0.22 0.0
0.68 0.22 0.0
0.7000000000000001 0.22 0.0
0.72 0.22 0.0
0.74 0.22 0.0
0.76 0.22 0.0
0.78 0.22 0.0
0.8 0.22 0.0
0.8200000000000001 0.22 0.0
0.84 0.22 0.0
0.86 0.22 0.0
0.88 0.22 0.0
0.9 0.22 0.0
0.92 0.22 0.0
0.9400000000000001 0.22 0.0
0.96 0.22 0.0
0.98 0.22 0.0
1.0 0.22 0.0
0.0 0.24 0.0
0.02 0.24 0.0
0.04 0.24 0.0
0.06 0.24 0.0
0.08 0.24 0.0
0.1 0.24 0.0
0.12 0.24 0.0
0.14 0.24 0.0
0.16 0.24 0.0
0.18 0.24 0.0
0.2 0.24 0.0
0.22 0.24 0.0
0.24 0.24 0.0
0.26 0.24 0.0
0.28 0.24 0.0
0.3 0.24 0.0
0.32 0.24 0.0
0.34 0.24 0.0
0.36 0.24 0.0
0.38 0.24 0.0
0.4 0.24 0.0
0.42 0.24 0.0
0.44 0.24 0.0
0.46 0.24 0.0
0.48 0.24 0.0
0.5 0.24 0.0
0.52 0.24 0.0
0.54 0.24 0.0
0.56 0.24 0.0
0.58 0.24 0.0
0.6 0.24 0.0
0.62 0.24 0.0
0.64 0.24 0.0
0.66 0.24 0.0
0.68 0.24 0.0
0.7000000000000001 0.24 0.0
0.72 0.24 0.0
0.74 0.24 0.0
0.76 0.24 0.0
0.78 0.24 0.0
0.8 0.24 0.0
0.8200000000000001 0.24 0.0
0.84 0.24 0.0
0.86 0.24 0.0
0.88 0.24 0.0
0.9 0.24 0.0
0.92 0.24 0.0
0.9400000000000001 0.24 0.0
0.96 0.24 0.0
0.98 0.24 0.0
1.0 0.24 0.0
0.0 0.26 0.0
0.02 0.26 0.0
0.04 0.26 0.0
0.06 0.26 0.0
0.08 0.26 0.0
0.1 0.26 0.0
0.12 0.26 0.0
0.14 0.26 0.0
0.16 0.26 0.0
0.18 0.26 0.0
0.2 0.26 0.0
0.22 0.26 0.0
0.24 0.26 0.0
0.26 0.26 0.0
0.28 0.26 0.0
0.3 0.26 0.0
0.32 0.26 0.0
0.34 0.26 0.0
0.36 0.26 0.0
0.38 0.26 0.0
0.4 0.26 0.0
0.42 0.26 0.0
0.44 0.26 0.0
0.46 0.26 0.0
0.48 0.26 0.0
[...]
CELL_DATA 2500
SCALARS u float 1
LOOKUP_TABLE u_cell_table
0.00016641344175401468 0.0007754912712442811 0.0010711963340581101 0.0009549476845532477 0.0005384891184638409 -4.021081131637161e-05 -0.0006695257319665512 -0.001273276671418416 -0.0018113086254263405 -0.0022740166636428926 -0.0026722062578861524 -0.003026455765826802 -0.003358160706824174 -0.0036841556252919273 -0.004014018271632771 -0.004350278088460354 -0.004689470354828666 -0.005024386542635433 -0.0053455575771820295 -0.005643124424566194 -0.005907383856577651 -0.006129808695640072 -0.006302795410866391 -0.006420271225795263 -0.006477164064163168 -0.006470015554618295 -0.0063964475210029565 -0.0062558574274173846 -0.006048856231293397 -0.0057779543522374875 -0.005446946512328503 -0.005061591081076088 -0.004628976391205088 -0.0041581244161402395 -0.00365921325560795 -0.0031439342177970032 -0.00262451472001996 -0.0021138764523923165 -0.0016246208288685578 -0.001169104282431797 -0.000758405595281127 -0.00040213606488198063 -0.00010700423894473862 0.0001244691376764927 0.00029773249046557266 0.00043356626024217674 0.0005864119955685926 0.0008838403488487653 0.001593617011929894 0.0 0.000510604150805659 0.0006228325348223663 0.0005161821712811693 0.00010446133313691321 -0.0005907173475995291 -0.001490162391629838 -0.002515778020075235 -0.0036080076437486463 -0.004728656832218163 -0.005857105178603837 -0.0069851964972582024 -0.008110143653739958 -0.009230597783188289 -0.010342315279395279 -0.011438153615962085 -0.012506482420347687 -0.013533591626477975 -0.014502839286194759 -0.015397698875427671 -0.01620039572442939 -0.01689492081074541 -0.01746497360628005 -0.01789701804342256 -0.01817780866590413 -0.01829770551845212 -0.01824803039132054 -0.018024659129162304 -0.017625221261518664 -0.017052752562557803 -0.016312646461515517 -0.015416176146719588 -0.014377226730039012 -0.013215567308342228 -0.011953346388543909 -0.010617880882722086 -0.009237846426166247 -0.007845462844883438 -0.006472533118770152 -0.005152121306809821 -0.003914646291634578 -0.0027890122904993945 -0.0017986605679263276 -0.0009617694125693378 -0.00028684154471826336 0.0002284268368953501 0.000600813653418288 0.0008555862571018207 0.000994933695502079 0.0008814721298323635 0.0 0.0004619740726531994 5.54051939870147e-05 -0.0005871778496867887 -0.0013753811877244234 -0.0023238992542100566 -0.003438209980084362 -0.0047123193466874665 -0.006135998257329009 -0.007693967077187635 -0.00936571278798363 -0.011124967134627047 -0.012942543929558922 -0.014786831726337574 -0.016627161298657666 -0.018433085033428505 -0.020177056096732725 -0.021832151623948963 -0.023374439035479654 -0.024779842268246335 -0.026026965092853207 -0.02709373087215019 -0.027961030246852474 -0.028609335812381023 -0.029023125286304338 -0.02918743365301857 -0.02909282412303514 -0.028731763919177766 -0.0281038163201331 -0.027211687082872207 -0.026066310699109294 -0.02468250958108629 -0.023083746279427733 -0.021297387104790257 -0.019358872838755162 -0.017306560079522165 -0.015185130498377667 -0.013040128207852142 -0.010920612432036361 -0.008873625376197429 -0.006946128410952091 -0.00517956959440055 -0.0036110969016397406 -0.0022684553757410346 -0.0011709018307409227 -0.00032593431231756737 0.00026632992255344856 0.0006061364153242699 0.0006748905296780956 0.00043475039631283424 0.0 -0.00023989744862303194 -0.0008120623323501216 -0.0016265754268949089 -0.0025886827677136267 -0.0037317954350220483 -0.005104535749253405 -0.006729025408168885 -0.008600466270774898 -0.010693161514033163 -0.012964983199977126 -0.015365710481779317 -0.01784156406681074 -0.02034209856238662 -0.02282035982618746 -0.02523646415515125 -0.027553936360073642 -0.029742010294064914 -0.03177051204973455 -0.03361299424695204 -0.03524161700347238 -0.03663185048800067 -0.03775757282890137 -0.03859710228263734 -0.03912824392681942 -0.03933518878800258 -0.0392032895477471 -0.038726407031460346 -0.03790127034202846 -0.03673485985013129 -0.03523827631234779 -0.03343382602281789 -0.03134840510616009 -0.02901997612781196 -0.02649047339020318 -0.023811405297307894 -0.021036386760873958 -0.018225758303998717 -0.015438976490005463 -0.012738248968428161 -0.01018106123589407 -0.007822910766490065 -0.005710380983576686 -0.0038833811651414673 -0.002369735136928617 -0.0011883096568619115 -0.00034727512579389437 0.00015084873107708356 0.0003147219907017299 0.00019541585002236567 0.0 -0.0009484657136632866 -0.0014678950807268856 -0.002259528694987159 -0.0033537697054324533 -0.004776610303528605 -0.006556343556594011 -0.008687884863542808 -0.01113460411447331 -0.013838201184451001 -0.01673130824248418 -0.01974439671969686 -0.022814150323268726 -0.02588360509836333 -0.028905565230908647 -0.03183771397704765 -0.0346445363873581 -0.037290956832954775 -0.039745665767483146 -0.04197503346812602 -0.04394858368874317 -0.04563321085584506 -0.047000333727246026 -0.04801993793533271 -0.048668797097207006 -0.04892407497234352 -0.048772194006340884 -0.04820193167679062 -0.04721353810923058 -0.04581128029271848 -0.04401240651350581 -0.041839150665599456 -0.039327176944540534 -0.036517068862863045 -0.0334619068759891 -0.030218317419716124 -0.02685295172132544 -0.0234332782766363 -0.02003286439847064 -0.016722195319457695 -0.013572809260406866 -0.010648581253595307 -0.008009014672191526 -0.005701701441549061 -0.0037653925540184026 -0.002224457035315811 -0.001091692444912119 -0.0003622777423664006 -6.770814406609552e-06 5.603584189184858e-05 0.0 -0.001012968254722807 -0.0015380082201516415 -0.0024532051846748904 -0.0038678729914997704 -0.005767199566513557 -0.008113451100002477 -0.010849236350258118 -0.01390005701864175 -0.017186660683975286 -0.02063190044945409 -0.02416830012939628 -0.027736483660027143 -0.03128753778461569 -0.034776725764719026 -0.03816535344068317 -0.04141369366950268 -0.04448509937591605 -0.047339376262096174 -0.04993936968881773 -0.052244377721616365 -0.05421851345939211 -0.055823587653621665 -0.05702864581982633 -0.05780214182942345 -0.058122327766813545 -0.05796881010407363 -0.057333477120495364 -0.05621148404285393 -0.05461227314348627 -0.052550009129391374 -0.05005425033917441 -0.04715987641766764 -0.04391697577438769 -0.04038031670002895 -0.03661808725558083 -0.032701035409410176 -0.028709824725574786 -0.024724076330868722 -0.020828283658717243 -0.017101163731337063 -0.013620324719103972 -0.010452545951968215 -0.007657593251226351 -0.005280045991981916 -0.003352324714971582 -0.0018874903830289834 -0.000878854900098297 -0.0002886969056302754 -3.916116279192966e-05 0.0 -0.0004733434379598179 -0.0012401224688057704 -0.002571258753093738 -0.004514155130915476 -0.007003319322340704 -0.009944144499934067 -0.01324269283587111 -0.016813149180904145 -0.02057889883026798 -0.02447631550135954 -0.02845011766466218 -0.032453814276500396 -0.036442264788926225 -0.04037380102931636 -0.04420336346546159 -0.047887807531548046 -0.05137944482106291 -0.05463373302896747 -0.05760220482461516 -0.0602417055559171 -0.06250624576117815 -0.06435743622354718 -0.06575533845760098 -0.0666699820385538 -0.06707149673168836 -0.06694251385949507 -0.06626774348336995 -0.06504680206836345 -0.06328326401167152 -0.06099739024167976 -0.05821470359385806 -0.05497810358554874 -0.05133599951932219 -0.04735332292089717 -0.04309928289580221 -0.03865689317289063 -0.03411050061085138 -0.029553620728621558 -0.02507656396878946 -0.02077264085341945 -0.016726438572867222 -0.01301869535811887 -0.009715864244615435 -0.00687389817595368 -0.004529332653285765 -0.002701416430746802 -0.0013836733944141153 -0.0005430803365885585 -0.00011388470281144822 0.0 6.345287339646559e-05 -0.0011104631030069492 -0.002997948690856655 -0.005494492926009022 -0.008503858882407777 -0.011918513559585496 -0.015648127741200134 -0.01962078303647805 -0.023780399734210818 -0.028077746152354813 -0.03246891189198608 -0.03690731046307599 -0.04134663821708026 -0.045734915653474 -0.05002132157172227 -0.054150195527903795 -0.05806974486330155 -0.06172445205242621 -0.06506490884628298 -0.06803851828189394 -0.07060057889322296 -0.07270373949114935 -0.07431048121947705 -0.07538177842822923 -0.07589085945066534 -0.07581132997482501 -0.07513174709946518 -0.07384325380352452 -0.07195435457525154 -0.0694781206354784 -0.06644658473986545 -0.06289756448774933 -0.05888808281478275 -0.05448082811722484 -0.04975607268125348 -0.04479783302812016 -0.03970390699421188 -0.034571935914519195 -0.02950744436245517 -0.024610249761500953 -0.01998069406687167 -0.015707046133036445 -0.011870264204932328 -0.00853299784536363 -0.005743057172845871 -0.0035242747426957816 -0.0018786738862348095 -0.0007801769475979191 -0.00017870600439727458 0.0 6.517389813789768e-05 -0.0014584372464491334 -0.0037697464541983075 -0.0066534606158936485 -0.010007487355922601 -0.013749329909152822 -0.01781152195254875 -0.02214193218141927 -0.02669279303699571 -0.031417722592852367 -0.03626411920514782 -0.04117749342825938 -0.04609688801869102 -0.05096307027826458 -0.05571293964206389 -0.060288730529505875 -0.0646297326047486 -0.06868222466296363 -0.07238899241383444 -0.07570072298892502 -0.07856417232988328 -0.08093538748504218 -0.08276704172685831 -0.08402334632278095 -0.08466682346620258 -0.08467441891353823 -0.08402379792140231 -0.0827099851205222 -0.08073126858736678 -0.07810573802728253 -0.07485690051255131 -0.07102946315988191 -0.06667466945278613 -0.06186467277610228 -0.05667757956894317 -0.05120985969971345 -0.045561151451454805 -0.03984437493545389 -0.034170572283551914 -0.02865673510735796 -0.023411244757569356 -0.01853974124432756 -0.014131925623909995 -0.010265954013248675 -0.006997392953815521 -0.004362667005467572 -0.0023711710019166787 -0.0010092339220580566 -0.00023842318834846479 0.0 -0.00044059758325371045 -0.0021057867744582615 -0.004582207580903697 -0.007660690166211783 -0.011244357679069795 -0.015268867328138652 -0.019677979759200416 -0.024414630316579616 -0.029420349434361264 -0.034629374855486436 -0.03997455750925438 -0.0453841048717672 -0.05079051137430836 -0.05612483212124595 -0.06132560841020962 -0.06632953064056521 -0.07108100079105034 -0.07552043570938997 -0.07959577761926521 -0.08324952385046755 -0.08643259783537043 -0.08909051085296162 -0.09117930599156732 -0.09265103874930118 -0.09347125622915103 -0.09360394634433984 -0.09302986954985812 -0.09173112968149619 -0.08970970644693409 -0.08697185003590097 -0.0835461524860553 -0.07946782708558839 -0.07479557676675548 -0.06959569910632933 -0.06395704054035047 -0.057974841288327555 -0.05176320435102561 -0.04543872749865182 -0.03913024005535336 -0.03296258963069547 -0.0270638311961464 -0.021549908190202905 -0.016529868482617345 -0.012092469543425917 -0.008310245380545202 -0.00522924449659866 -0.002873069387237987 -0.0012375139245570058 -0.00029654863867353907 0.0 -0.000960603164094233 -0.002615497466063183 -0.005118693011510002 -0.008345003334579562 -0.012188409658176446 -0.016569681325587164 -0.0214095983309658 -0.026626509867257196 -0.0321337887425187 -0.037847553103781746 -0.043684196184007956 -0.0495689620522325 -0.05542928510110749 -0.061202524705725764 -0.0668252493892065 -0.07224203691032924 -0.07739271934541714 -0.0822239158977244 -0.08667522274383377 -0.09069365505590601 -0.09421886393978256 -0.0971999483699864 -0.09957974190674225 -0.10131340695192452 -0.10235204082663586 -0.10266243317424767 -0.10221027675251772 -0.10098044418097356 -0.09896012868346638 -0.09615900579531991 -0.09259248546255988 -0.08830098654838178 -0.08333325110060909 -0.07776390225288245 -0.07167663346808126 -0.06517926008246941 -0.05838658992956066 -0.05143240921356067 -0.04445209733786679 -0.03759144934346936 -0.030989565605721397 -0.024784983846454757 -0.01909989829889762 -0.014044573799556221 -0.009704317189362991 -0.006143408881146322 -0.003396415216710635 -0.001473025274537474 -0.00035522878342934307 0.0 -0.0010593425510808513 -0.002737113122934492 -0.005352225488064238 -0.008833049832616405 -0.013049096544393252 -0.017876799774132722 -0.023200882790521217 -0.028908471357162097 -0.03489666516896126 -0.041070162176447454 -0.04734834439115452 -0.053656876711847 -0.059933516333413504 -0.06611592330333585 -0.0721495797456467 -0.07797432844522172 -0.08353598758676477 -0.08877205103840914 -0.09362663781665655 -0.09803495218398522 -0.101940766427452 -0.10527956819019055 -0.10799799541326047 -0.11003606276122162 -0.11134805641947053 -0.11188431923398064 -0.11161300252892016 -0.11050186364006095 -0.10854026476328141 -0.10572132960844745 -0.10206344719131577 -0.0975928277520363 -0.09236362388264563 -0.08644066918983791 -0.07991726817648759 -0.07289772893688842 -0.0655119525203915 -0.05789746225626114 -0.05021030160857987 -0.042606702465120376 -0.035250453340889956 -0.02829504056398424 -0.02188840596266814 -0.016157068323700154 -0.011209715118810946 -0.007125113704962341 -0.003956034075235911 -0.0017225424096498974 -0.0004171059698914024 0.0 -0.0007645968398346595 -0.0026173415235085334 -0.005526653054958047 -0.009386149933957998 -0.014035137041636449 -0.019314851349221673 -0.02508238012102815 -0.031215768291236422 -0.0376089357871626 -0.0441761031093851 -0.05084133859322011 -0.05754220146103285 -0.06421641725128989 -0.07080911339030291 -0.07725920040844286 -0.0835111796298686 -0.08950069438191559 -0.0951698271913721 -0.10045092136571718 -0.10528443551643722 -0.10960098274215081 -0.1133412874823453 -0.11643701656302666 -0.11883249779038847 -0.1204650336557095 -0.12128783757615794 -0.12125040430429351 -0.12032204139870815 -0.11847280663519937 -0.11569695686634071 -0.11199466888489798 -0.10739453777168774 -0.10193593361257114 -0.09568953440008132 -0.08873984080096026 -0.08120264051893707 -0.07320705673495824 -0.06490902563407512 -0.05647251394704275 -0.048078670629294 -0.03990655702808033 -0.03213855521078985 -0.02494192334925909 -0.01847196378019982 -0.01285644753668036 -0.008198434339965269 -0.004565607987227957 -0.001994146673608569 -0.0004839490347986891 0.0 -0.0004734119155647284 -0.002599238426040605 -0.005883675303750668 -0.010127905189097728 -0.01515508648697057 -0.02079694498623729 -0.026912728074596732 -0.03338551555959905 -0.04012301068105184 -0.04704500798530193 -0.0540852860956813 -0.06117797170087283 -0.06826455404837829 -0.0752807065054216 -0.08216833165016044 -0.08886116431874862 -0.09530011185381476 -0.10141643741101551 -0.10714960427207385 -0.11242821293042635 -0.11719016569802707 -0.12136212967814343 -0.12488180032009917 -0.12767673298295157 -0.1296881962039833 -0.13085004810944983 -0.1311135011200797 -0.1304266769768884 -0.12875965458127167 -0.12608516041491982 -0.12240313089942334 -0.11772257252775226 -0.11208466340459088 -0.10554536105467083 -0.09819584521273994 -0.09014505526229974 -0.08153620645332187 -0.07252838888117874 -0.06330822214920419 -0.05407015454165545 -0.04502319639396078 -0.03637064965223248 -0.028313118421262655 -0.021029652040127182 -0.014679236290580131 -0.009385957793386492 -0.0052411759225264205 -0.0022946773649927957 -0.0005583248451353294 0.0 -0.0005139107107958681 -0.0028638720063993896 -0.006428715970015337 -0.010945615289385415 -0.01623285786553959 -0.022137970370688657 -0.028531346091378997 -0.03530910436667157 -0.0423805503878421 -0.04966913423979772 -0.057099520807476885 -0.06460488544108886 -0.07211463551782203 -0.07956652294552541 -0.08689229043770501 -0.09403258303766539 -0.10091941066850382 -0.10749355751596226 -0.11368445788701347 -0.11943029149713541 -0.1246561981805863 -0.12929686635152424 -0.13327394780743385 -0.13652059021134877 -0.13895879704424097 -0.1405251492424584 -0.14114882613014834 -0.14077788204434696 -0.13935863601262188 -0.1368618836992569 -0.13326397885988686 -0.12857214312618453 -0.12280702112061448 -0.11602595785920122 -0.10830622154509266 -0.09976481785044299 -0.09054116513504358 -0.08081198273445929 -0.0707722984583936 -0.06064450516371548 -0.05065747811781234 -0.04105021520733843 -0.032050444749328284 -0.023874913113893455 -0.016710356045604693 -0.01071341827921174 -0.0059970793559971204 -0.002632418459112638 -0.0006419430001277514 0.0 -0.0008396497758485751 -0.0032787295486315644 -0.00696191965713155 -0.011631178244198043 -0.01710645943892141 -0.023242340107315594 -0.02991605527477343 -0.03701716683107227 -0.04445013227634423 -0.0521232224416499 -0.059956290286474596 -0.06786949785460163 -0.0757950425381311 -0.0836626281689939 -0.09141338180026955 -0.09898151002437656 -0.10631090210800805 -0.11333408068384908 -0.11999203437275596 -0.12621140856253246 -0.13192727095997311 -0.13705925570965258 -0.14153657488782742 -0.14527388185697312 -0.14819770909694538 -0.1502228434616579 -0.15127949390325737 -0.15129109040192182 -0.15020169535905875 -0.1479559045959465 -0.14452587212704132 -0.139893418232283 -0.1340757396385796 -0.12710914755289845 -0.11907211338901166 -0.11006935687476439 -0.10025048272671215 -0.08979271722835853 -0.07891341211589963 -0.06785008219072623 -0.0568660105056082 -0.046227749576427925 -0.036205028162078344 -0.027048123416368648 -0.018985311530048413 -0.0122040763234995 -0.006849840332581018 -0.0030143363503725823 -0.0007374021274170978 0.0 -0.0011318519976479596 -0.0035768582468926552 -0.007303211704330917 -0.012100356216473826 -0.017778320063251668 -0.024181549901243795 -0.031170016105050227 -0.0386205149436154 -0.04641838865358194 -0.05446583966818994 -0.06267137646244908 -0.07096043316116366 -0.07926034342276173 -0.08751274438233944 -0.09565446820178138 -0.10363311796127772 -0.11138537917919669 -0.11885649171457714 -0.12597673181882882 -0.1326842457239567 -0.13890013290420553 -0.1445537557710711 -0.14955716849859269 -0.15383205399388622 -0.1572844029160281 -0.15983230340217516 -0.16138191257209414 -0.16185565477069297 -0.16117050731790816 -0.1592661997331234 -0.15608631348191757 -0.1516058261862036 -0.14581483676089815 -0.13874440173773558 -0.1304518646346154 -0.12104331890583003 -0.11065864858988916 -0.09948839136521727 -0.08775618938441904 -0.07572802117681639 -0.06369060686689205 -0.05195262268855045 -0.04082002220512809 -0.030591691493587838 -0.02153561156848713 -0.013883704052591475 -0.007813988306590613 -0.003448883582122367 -0.000846443299391869 0.0 -0.0011562266692190114 -0.0036393381264455222 -0.0074666969923142135 -0.012449404160989351 -0.01838274494950727 -0.02508285213149606 -0.03239139528000871 -0.040166287410056976 -0.04828913371186687 -0.056654941620219106 -0.06518092117928329 -0.0737907371496109 -0.0824251140287477 -0.09102225308044085 -0.09953237918376082 -0.10789584779826186 -0.11606222342263774 -0.12396640037132994 -0.13155137672064587 -0.13874250341872818 -0.14547290549211692 -0.15165657660571152 -0.15721561455792588 -0.16205321896812924 -0.16608191836063116 -0.16919758765578086 -0.1713081307488546 -0.17230977725796662 -0.17211597086583583 -0.1706368537874034 -0.16780797640804396 -0.1635732335483215 -0.1579127484453335 -0.150828750572182 -0.14237139791764958 -0.1326259962710892 -0.12173455913882113 -0.10988164003854191 -0.0973087028994119 -0.0842955885215917 -0.07116539455322007 -0.058260286356507804 -0.04593732584453715 -0.034541029942465495 -0.024394526152243228 -0.01577486623753805 -0.008906019484129111 -0.0039431585628247985 -0.00097173719337154 0.0 -0.0009792023480278598 -0.003586835573968798 -0.007607125641090492 -0.01282472540331903 -0.019017278356495627 -0.025985710953384356 -0.033557363996473424 -0.04159155785383958 -0.04996802726280856 -0.058593263154934634 -0.06738420542354587 -0.07627717400637254 -0.08520841211054957 -0.09412781097156513 -0.10297732663380338 -0.11170961609851583 -0.12026409465932025 -0.12858943957900426 -0.1366172049038899 -0.1442871362891729 -0.15151907533253706 -0.15824031027445054 -0.16435698071431262 -0.16978263078681063 -0.17441028381748977 -0.1781414574245138 -0.1808602415027094 -0.18246253051111727 -0.18283336612326398 -0.18187621919909072 -0.17949429434007913 -0.17561959185178835 -0.17019826909335786 -0.16321888151408884 -0.15470089938579162 -0.14472050859003663 -0.13339984561026155 -0.12092728844801512 -0.10754358707159607 -0.09355279838409837 -0.0793016466461221 -0.06517871870444729 -0.05158644987776892 -0.03