# vtk DataFile Version 3.0
vtk output
ASCII
DATASET STRUCTURED_GRID
DIMENSIONS 51 51 1
POINTS 2601 float
0.0 0.0 0.0
0.02 0.0 0.0
0.04 0.0 0.0
0.06 0.0 0.0
0.08 0.0 0.0
0.1 0.0 0.0
0.12 0.0 0.0
0.14 0.0 0.0
0.16 0.0 0.0
0.18 0.0 0.0
0.2 0.0 0.0
0.22 0.0 0.0
0.24 0.0 0.0
0.26 0.0 0.0
0.28 0.0 0.0
0.3 0.0 0.0
0.32 0.0 0.0
0.34 0.0 0.0
0.36 0.0 0.0
0.38 0.0 0.0
0.4 0.0 0.0
0.42 0.0 0.0
0.44 0.0 0.0
0.46 0.0 0.0
0.48 0.0 0.0
0.5 0.0 0.0
0.52 0.0 0.0
0.54 0.0 0.0
0.56 0.0 0.0
0.58 0.0 0.0
0.6 0.0 0.0
0.62 0.0 0.0
0.64 0.0 0.0
0.66 0.0 0.0
0.68 0.0 0.0
0.7000000000000001 0.0 0.0
0.72 0.0 0.0
0.74 0.0 0.0
0.76 0.0 0.0
0.78 0.0 0.0
0.8 0.0 0.0
0.8200000000000001 0.0 0.0
0.84 0.0 0.0
0.86 0.0 0.0
0.88 0.0 0.0
0.9 0.0 0.0
0.92 0.0 0.0
0.9400000000000001 0.0 0.0
0.96 0.0 0.0
0.98 0.0 0.0
1.0 0.0 0.0
0.0 0.02 0.0
0.02 0.02 0.0
0.04 0.02 0.0
0.06 0.02 0.0
0.08 0.02 0.0
0.1 0.02 0.0
0.12 0.02 0.0
0.14 0.02 0.0
0.16 0.02 0.0
0.18 0.02 0.0
0.2 0.02 0.0
0.22 0.02 0.0
0.24 0.02 0.0
0.26 0.02 0.0
0.28 0.02 0.0
0.3 0.02 0.0
0.32 0.02 0.0
0.34 0.02 0.0
0.36 0.02 0.0
0.38 0.02 0.0
0.4 0.02 0.0
0.42 0.02 0.0
0.44 0.02 0.0
0.46 0.02 0.0
0.48 0.02 0.0
0.5 0.02 0.0
0.52 0.02 0.0
0.54 0.02 0.0
0.56 0.02 0.0
0.58 0.02 0.0
0.6 0.02 0.0
0.62 0.02 0.0
0.64 0.02 0.0
0.66 0.02 0.0
0.68 0.02 0.0
0.7000000000000001 0.02 0.0
0.72 0.02 0.0
0.74 0.02 0.0
0.76 0.02 0.0
0.78 0.02 0.0
0.8 0.02 0.0
0.8200000000000001 0.02 0.0
0.84 0.02 0.0
0.86 0.02 0.0
0.88 0.02 0.0
0.9 0.02 0.0
0.92 0.02 0.0
0.9400000000000001 0.02 0.0
0.96 0.02 0.0
0.98 0.02 0.0
1.0 0.02 0.0
0.0 0.04 0.0
0.02 0.04 0.0
0.04 0.04 0.0
0.06 0.04 0.0
0.08 0.04 0.0
0.1 0.04 0.0
0.12 0.04 0.0
0.14 0.04 0.0
0.16 0.04 0.0
0.18 0.04 0.0
0.2 0.04 0.0
0.22 0.04 0.0
0.24 0.04 0.0
0.26 0.04 0.0
0.28 0.04 0.0
0.3 0.04 0.0
0.32 0.04 0.0
0.34 0.04 0.0
0.36 0.04 0.0
0.38 0.04 0.0
0.4 0.04 0.0
0.42 0.04 0.0
0.44 0.04 0.0
0.46 0.04 0.0
0.48 0.04 0.0
0.5 0.04 0.0
0.52 0.04 0.0
0.54 0.04 0.0
0.56 0.04 0.0
0.58 0.04 0.0
0.6 0.04 0.0
0.62 0.04 0.0
0.64 0.04 0.0
0.66 0.04 0.0
0.68 0.04 0.0
0.7000000000000001 0.04 0.0
0.72 0.04 0.0
0.74 0.04 0.0
0.76 0.04 0.0
0.78 0.04 0.0
0.8 0.04 0.0
0.8200000000000001 0.04 0.0
0.84 0.04 0.0
0.86 0.04 0.0
0.88 0.04 0.0
0.9 0.04 0.0
0.92 0.04 0.0
0.9400000000000001 0.04 0.0
0.96 0.04 0.0
0.98 0.04 0.0
1.0 0.04 0.0
0.0 0.06 0.0
0.02 0.06 0.0
0.04 0.06 0.0
0.06 0.06 0.0
0.08 0.06 0.0
0.1 0.06 0.0
0.12 0.06 0.0
0.14 0.06 0.0
0.16 0.06 0.0
0.18 0.06 0.0
0.2 0.06 0.0
0.22 0.06 0.0
0.24 0.06 0.0
0.26 0.06 0.0
0.28 0.06 0.0
0.3 0.06 0.0
0.32 0.06 0.0
0.34 0.06 0.0
0.36 0.06 0.0
0.38 0.06 0.0
0.4 0.06 0.0
0.42 0.06 0.0
0.44 0.06 0.0
0.46 0.06 0.0
0.48 0.06 0.0
0.5 0.06 0.0
0.52 0.06 0.0
0.54 0.06 0.0
0.56 0.06 0.0
0.58 0.06 0.0
0.6 0.06 0.0
0.62 0.06 0.0
0.64 0.06 0.0
0.66 0.06 0.0
0.68 0.06 0.0
0.7000000000000001 0.06 0.0
0.72 0.06 0.0
0.74 0.06 0.0
0.76 0.06 0.0
0.78 0.06 0.0
0.8 0.06 0.0
0.8200000000000001 0.06 0.0
0.84 0.06 0.0
0.86 0.06 0.0
0.88 0.06 0.0
0.9 0.06 0.0
0.92 0.06 0.0
0.9400000000000001 0.06 0.0
0.96 0.06 0.0
0.98 0.06 0.0
1.0 0.06 0.0
0.0 0.08 0.0
0.02 0.08 0.0
0.04 0.08 0.0
0.06 0.08 0.0
0.08 0.08 0.0
0.1 0.08 0.0
0.12 0.08 0.0
0.14 0.08 0.0
0.16 0.08 0.0
0.18 0.08 0.0
0.2 0.08 0.0
0.22 0.08 0.0
0.24 0.08 0.0
0.26 0.08 0.0
0.28 0.08 0.0
0.3 0.08 0.0
0.32 0.08 0.0
0.34 0.08 0.0
0.36 0.08 0.0
0.38 0.08 0.0
0.4 0.08 0.0
0.42 0.08 0.0
0.44 0.08 0.0
0.46 0.08 0.0
0.48 0.08 0.0
0.5 0.08 0.0
0.52 0.08 0.0
0.54 0.08 0.0
0.56 0.08 0.0
0.58 0.08 0.0
0.6 0.08 0.0
0.62 0.08 0.0
0.64 0.08 0.0
0.66 0.08 0.0
0.68 0.08 0.0
0.7000000000000001 0.08 0.0
0.72 0.08 0.0
0.74 0.08 0.0
0.76 0.08 0.0
0.78 0.08 0.0
0.8 0.08 0.0
0.8200000000000001 0.08 0.0
0.84 0.08 0.0
0.86 0.08 0.0
0.88 0.08 0.0
0.9 0.08 0.0
0.92 0.08 0.0
0.9400000000000001 0.08 0.0
0.96 0.08 0.0
0.98 0.08 0.0
1.0 0.08 0.0
0.0 0.1 0.0
0.02 0.1 0.0
0.04 0.1 0.0
0.06 0.1 0.0
0.08 0.1 0.0
0.1 0.1 0.0
0.12 0.1 0.0
0.14 0.1 0.0
0.16 0.1 0.0
0.18 0.1 0.0
0.2 0.1 0.0
0.22 0.1 0.0
0.24 0.1 0.0
0.26 0.1 0.0
0.28 0.1 0.0
0.3 0.1 0.0
0.32 0.1 0.0
0.34 0.1 0.0
0.36 0.1 0.0
0.38 0.1 0.0
0.4 0.1 0.0
0.42 0.1 0.0
0.44 0.1 0.0
0.46 0.1 0.0
0.48 0.1 0.0
0.5 0.1 0.0
0.52 0.1 0.0
0.54 0.1 0.0
0.56 0.1 0.0
0.58 0.1 0.0
0.6 0.1 0.0
0.62 0.1 0.0
0.64 0.1 0.0
0.66 0.1 0.0
0.68 0.1 0.0
0.7000000000000001 0.1 0.0
0.72 0.1 0.0
0.74 0.1 0.0
0.76 0.1 0.0
0.78 0.1 0.0
0.8 0.1 0.0
0.8200000000000001 0.1 0.0
0.84 0.1 0.0
0.86 0.1 0.0
0.88 0.1 0.0
0.9 0.1 0.0
0.92 0.1 0.0
0.9400000000000001 0.1 0.0
0.96 0.1 0.0
0.98 0.1 0.0
1.0 0.1 0.0
0.0 0.12 0.0
0.02 0.12 0.0
0.04 0.12 0.0
0.06 0.12 0.0
0.08 0.12 0.0
0.1 0.12 0.0
0.12 0.12 0.0
0.14 0.12 0.0
0.16 0.12 0.0
0.18 0.12 0.0
0.2 0.12 0.0
0.22 0.12 0.0
0.24 0.12 0.0
0.26 0.12 0.0
0.28 0.12 0.0
0.3 0.12 0.0
0.32 0.12 0.0
0.34 0.12 0.0
0.36 0.12 0.0
0.38 0.12 0.0
0.4 0.12 0.0
0.42 0.12 0.0
0.44 0.12 0.0
0.46 0.12 0.0
0.48 0.12 0.0
0.5 0.12 0.0
0.52 0.12 0.0
0.54 0.12 0.0
0.56 0.12 0.0
0.58 0.12 0.0
0.6 0.12 0.0
0.62 0.12 0.0
0.64 0.12 0.0
0.66 0.12 0.0
0.68 0.12 0.0
0.7000000000000001 0.12 0.0
0.72 0.12 0.0
0.74 0.12 0.0
0.76 0.12 0.0
0.78 0.12 0.0
0.8 0.12 0.0
0.8200000000000001 0.12 0.0
0.84 0.12 0.0
0.86 0.12 0.0
0.88 0.12 0.0
0.9 0.12 0.0
0.92 0.12 0.0
0.9400000000000001 0.12 0.0
0.96 0.12 0.0
0.98 0.12 0.0
1.0 0.12 0.0
0.0 0.14 0.0
0.02 0.14 0.0
0.04 0.14 0.0
0.06 0.14 0.0
0.08 0.14 0.0
0.1 0.14 0.0
0.12 0.14 0.0
0.14 0.14 0.0
0.16 0.14 0.0
0.18 0.14 0.0
0.2 0.14 0.0
0.22 0.14 0.0
0.24 0.14 0.0
0.26 0.14 0.0
0.28 0.14 0.0
0.3 0.14 0.0
0.32 0.14 0.0
0.34 0.14 0.0
0.36 0.14 0.0
0.38 0.14 0.0
0.4 0.14 0.0
0.42 0.14 0.0
0.44 0.14 0.0
0.46 0.14 0.0
0.48 0.14 0.0
0.5 0.14 0.0
0.52 0.14 0.0
0.54 0.14 0.0
0.56 0.14 0.0
0.58 0.14 0.0
0.6 0.14 0.0
0.62 0.14 0.0
0.64 0.14 0.0
0.66 0.14 0.0
0.68 0.14 0.0
0.7000000000000001 0.14 0.0
0.72 0.14 0.0
0.74 0.14 0.0
0.76 0.14 0.0
0.78 0.14 0.0
0.8 0.14 0.0
0.8200000000000001 0.14 0.0
0.84 0.14 0.0
0.86 0.14 0.0
0.88 0.14 0.0
0.9 0.14 0.0
0.92 0.14 0.0
0.9400000000000001 0.14 0.0
0.96 0.14 0.0
0.98 0.14 0.0
1.0 0.14 0.0
0.0 0.16 0.0
0.02 0.16 0.0
0.04 0.16 0.0
0.06 0.16 0.0
0.08 0.16 0.0
0.1 0.16 0.0
0.12 0.16 0.0
0.14 0.16 0.0
0.16 0.16 0.0
0.18 0.16 0.0
0.2 0.16 0.0
0.22 0.16 0.0
0.24 0.16 0.0
0.26 0.16 0.0
0.28 0.16 0.0
0.3 0.16 0.0
0.32 0.16 0.0
0.34 0.16 0.0
0.36 0.16 0.0
0.38 0.16 0.0
0.4 0.16 0.0
0.42 0.16 0.0
0.44 0.16 0.0
0.46 0.16 0.0
0.48 0.16 0.0
0.5 0.16 0.0
0.52 0.16 0.0
0.54 0.16 0.0
0.56 0.16 0.0
0.58 0.16 0.0
0.6 0.16 0.0
0.62 0.16 0.0
0.64 0.16 0.0
0.66 0.16 0.0
0.68 0.16 0.0
0.7000000000000001 0.16 0.0
0.72 0.16 0.0
0.74 0.16 0.0
0.76 0.16 0.0
0.78 0.16 0.0
0.8 0.16 0.0
0.8200000000000001 0.16 0.0
0.84 0.16 0.0
0.86 0.16 0.0
0.88 0.16 0.0
0.9 0.16 0.0
0.92 0.16 0.0
0.9400000000000001 0.16 0.0
0.96 0.16 0.0
0.98 0.16 0.0
1.0 0.16 0.0
0.0 0.18 0.0
0.02 0.18 0.0
0.04 0.18 0.0
0.06 0.18 0.0
0.08 0.18 0.0
0.1 0.18 0.0
0.12 0.18 0.0
0.14 0.18 0.0
0.16 0.18 0.0
0.18 0.18 0.0
0.2 0.18 0.0
0.22 0.18 0.0
0.24 0.18 0.0
0.26 0.18 0.0
0.28 0.18 0.0
0.3 0.18 0.0
0.32 0.18 0.0
0.34 0.18 0.0
0.36 0.18 0.0
0.38 0.18 0.0
0.4 0.18 0.0
0.42 0.18 0.0
0.44 0.18 0.0
0.46 0.18 0.0
0.48 0.18 0.0
0.5 0.18 0.0
0.52 0.18 0.0
0.54 0.18 0.0
0.56 0.18 0.0
0.58 0.18 0.0
0.6 0.18 0.0
0.62 0.18 0.0
0.64 0.18 0.0
0.66 0.18 0.0
0.68 0.18 0.0
0.7000000000000001 0.18 0.0
0.72 0.18 0.0
0.74 0.18 0.0
0.76 0.18 0.0
0.78 0.18 0.0
0.8 0.18 0.0
0.8200000000000001 0.18 0.0
0.84 0.18 0.0
0.86 0.18 0.0
0.88 0.18 0.0
0.9 0.18 0.0
0.92 0.18 0.0
0.9400000000000001 0.18 0.0
0.96 0.18 0.0
0.98 0.18 0.0
1.0 0.18 0.0
0.0 0.2 0.0
0.02 0.2 0.0
0.04 0.2 0.0
0.06 0.2 0.0
0.08 0.2 0.0
0.1 0.2 0.0
0.12 0.2 0.0
0.14 0.2 0.0
0.16 0.2 0.0
0.18 0.2 0.0
0.2 0.2 0.0
0.22 0.2 0.0
0.24 0.2 0.0
0.26 0.2 0.0
0.28 0.2 0.0
0.3 0.2 0.0
0.32 0.2 0.0
0.34 0.2 0.0
0.36 0.2 0.0
0.38 0.2 0.0
0.4 0.2 0.0
0.42 0.2 0.0
0.44 0.2 0.0
0.46 0.2 0.0
0.48 0.2 0.0
0.5 0.2 0.0
0.52 0.2 0.0
0.54 0.2 0.0
0.56 0.2 0.0
0.58 0.2 0.0
0.6 0.2 0.0
0.62 0.2 0.0
0.64 0.2 0.0
0.66 0.2 0.0
0.68 0.2 0.0
0.7000000000000001 0.2 0.0
0.72 0.2 0.0
0.74 0.2 0.0
0.76 0.2 0.0
0.78 0.2 0.0
0.8 0.2 0.0
0.8200000000000001 0.2 0.0
0.84 0.2 0.0
0.86 0.2 0.0
0.88 0.2 0.0
0.9 0.2 0.0
0.92 0.2 0.0
0.9400000000000001 0.2 0.0
0.96 0.2 0.0
0.98 0.2 0.0
1.0 0.2 0.0
0.0 0.22 0.0
0.02 0.22 0.0
0.04 0.22 0.0
0.06 0.22 0.0
0.08 0.22 0.0
0.1 0.22 0.0
0.12 0.22 0.0
0.14 0.22 0.0
0.16 0.22 0.0
0.18 0.22 0.0
0.2 0.22 0.0
0.22 0.22 0.0
0.24 0.22 0.0
0.26 0.22 0.0
0.28 0.22 0.0
0.3 0.22 0.0
0.32 0.22 0.0
0.34 0.22 0.0
0.36 0.22 0.0
0.38 0.22 0.0
0.4 0.22 0.0
0.42 0.22 0.0
0.44 0.22 0.0
0.46 0.22 0.0
0.48 0.22 0.0
0.5 0.22 0.0
0.52 0.22 0.0
0.54 0.22 0.0
0.56 0.22 0.0
0.58 0.22 0.0
0.6 0.22 0.0
0.62 0.22 0.0
0.64 0.22 0.0
0.66 0.22 0.0
0.68 0.22 0.0
0.7000000000000001 0.22 0.0
0.72 0.22 0.0
0.74 0.22 0.0
0.76 0.22 0.0
0.78 0.22 0.0
0.8 0.22 0.0
0.8200000000000001 0.22 0.0
0.84 0.22 0.0
0.86 0.22 0.0
0.88 0.22 0.0
0.9 0.22 0.0
0.92 0.22 0.0
0.9400000000000001 0.22 0.0
0.96 0.22 0.0
0.98 0.22 0.0
1.0 0.22 0.0
0.0 0.24 0.0
0.02 0.24 0.0
0.04 0.24 0.0
0.06 0.24 0.0
0.08 0.24 0.0
0.1 0.24 0.0
0.12 0.24 0.0
0.14 0.24 0.0
0.16 0.24 0.0
0.18 0.24 0.0
0.2 0.24 0.0
0.22 0.24 0.0
0.24 0.24 0.0
0.26 0.24 0.0
0.28 0.24 0.0
0.3 0.24 0.0
0.32 0.24 0.0
0.34 0.24 0.0
0.36 0.24 0.0
0.38 0.24 0.0
0.4 0.24 0.0
0.42 0.24 0.0
0.44 0.24 0.0
0.46 0.24 0.0
0.48 0.24 0.0
0.5 0.24 0.0
0.52 0.24 0.0
0.54 0.24 0.0
0.56 0.24 0.0
0.58 0.24 0.0
0.6 0.24 0.0
0.62 0.24 0.0
0.64 0.24 0.0
0.66 0.24 0.0
0.68 0.24 0.0
0.7000000000000001 0.24 0.0
0.72 0.24 0.0
0.74 0.24 0.0
0.76 0.24 0.0
0.78 0.24 0.0
0.8 0.24 0.0
0.8200000000000001 0.24 0.0
0.84 0.24 0.0
0.86 0.24 0.0
0.88 0.24 0.0
0.9 0.24 0.0
0.92 0.24 0.0
0.9400000000000001 0.24 0.0
0.96 0.24 0.0
0.98 0.24 0.0
1.0 0.24 0.0
0.0 0.26 0.0
0.02 0.26 0.0
0.04 0.26 0.0
0.06 0.26 0.0
0.08 0.26 0.0
0.1 0.26 0.0
0.12 0.26 0.0
0.14 0.26 0.0
0.16 0.26 0.0
0.18 0.26 0.0
0.2 0.26 0.0
0.22 0.26 0.0
0.24 0.26 0.0
0.26 0.26 0.0
0.28 0.26 0.0
0.3 0.26 0.0
0.32 0.26 0.0
0.34 0.26 0.0
0.36 0.26 0.0
0.38 0.26 0.0
0.4 0.26 0.0
0.42 0.26 0.0
0.44 0.26 0.0
0.46 0.26 0.0
0.48 0.26 0.0
[...]
CELL_DATA 2500
SCALARS u float 1
LOOKUP_TABLE u_cell_table
5.346843289076022e-05 0.00011272222890886568 0.00010574472074423763 1.0117124530643174e-05 -0.00017450731723733396 -0.0004389077563011143 -0.0007701693089136924 -0.001154864203753985 -0.00158045637585248 -0.0020359734395557563 -0.002511865125488075 -0.0029998942714252615 -0.003492629011282347 -0.003983301456466518 -0.004465362061016791 -0.004932490134618011 -0.00537826346592548 -0.005796301517261499 -0.00618002887809979 -0.0065229291491319345 -0.006818400025556217 -0.007060110447045764 -0.007241944798521978 -0.007358444746172252 -0.007404820960868785 -0.007377439888105971 -0.00727385872835022 -0.0070932975597415735 -0.00683663704892248 -0.006506806955193513 -0.006108682794059101 -0.005649325720000481 -0.0051377249545942584 -0.004584843069875868 -0.004003178843211334 -0.0034066086513312157 -0.002809786478457103 -0.002227814233847929 -0.0016755290298027506 -0.0011670481684686554 -0.0007149650304619404 -0.00032970181247390777 -1.8338994931551493e-05 0.0002170169059594456 0.00038282635933210905 0.0005019003359720152 0.0006317876164660066 0.0009047173744024812 0.0015930564682815876 0.0 5.358029906597194e-05 3.965936465313479e-05 -0.00013678011675172615 -0.0005132410093943205 -0.0010936016435745019 -0.0018627512454116504 -0.002796511471329777 -0.0038668207400240884 -0.0050456191659682265 -0.006305798084880992 -0.007622611223537499 -0.008972883329775345 -0.010335652038347042 -0.011690819132366876 -0.013019743710944172 -0.01430382503032156 -0.015525304653421059 -0.01666597913567642 -0.017708292767584764 -0.018634265079450284 -0.019426877559386185 -0.02006923211299736 -0.020546178084415556 -0.020843661106694975 -0.020950490357968282 -0.020857790211740498 -0.020560769847455147 -0.02005815384359743 -0.019353792238269787 -0.018455929962468472 -0.017378494981669122 -0.016140078315177074 -0.014764767625626387 -0.013280755222358885 -0.011720648869041733 -0.010119703357865365 -0.008515627939884465 -0.006946521401313591 -0.005450263645877873 -0.004062263208954642 -0.0028144848521787984 -0.0017329770126213151 -0.0008363030170031043 -0.00013239757061248052 0.00038406572907022656 0.0007344646907934695 0.0009515293924974032 0.0010472705685612483 0.0008975450759967035 0.0 -6.034267229117832e-06 -0.00018868943081806928 -0.0006241117440746046 -0.0013450186022976865 -0.002352262562954366 -0.003626509195778224 -0.0051363739418583045 -0.00684512439775878 -0.008713652297205403 -0.010703694973777923 -0.012777968031123483 -0.014901777554024557 -0.01704178001090016 -0.019167022717082607 -0.021247167603471315 -0.02325353177500382 -0.025157270312808577 -0.026930720074738214 -0.0285458083957936 -0.029975807504040154 -0.03119406276206331 -0.032176126104209876 -0.03289877874839035 -0.03334242402717834 -0.03349030205733661 -0.03333096550772253 -0.032857530880784545 -0.03207002464658816 -0.030974486140983883 -0.029584960360903603 -0.02792226849360541 -0.026015446096507733 -0.023900037469301517 -0.02161884179072352 -0.019219670586820423 -0.01675536625926407 -0.014281072780059655 -0.011853603396754201 -0.009528372597213288 -0.007358262156524751 -0.005390395434909111 -0.0036646569770439267 -0.0022105322315370607 -0.0010457457375451955 -0.00017456051012540192 0.0004096903310489213 0.0007164024295763787 0.0007398426757647973 0.00045818298999287713 0.0 -9.638494677097486e-05 -0.0004939799072549381 -0.001236970886718677 -0.0023415961948547734 -0.0037998641705601233 -0.005585275638350616 -0.00766016137843231 -0.009979748396891332 -0.012497093770972998 -0.015164160392356709 -0.017934833031644355 -0.02076395468422102 -0.023609289305285 -0.02642943939080097 -0.02918550380920983 -0.031838620265696636 -0.03435182949514698 -0.0366877175845697 -0.03881072746608899 -0.0406851200638071 -0.042277760840799795 -0.04355643664493904 -0.0444930108035891 -0.04506201775945224 -0.045243999320710944 -0.045024225003641116 -0.04439597201952716 -0.04335917390946548 -0.04192338339114799 -0.040106137312257234 -0.03793534963115914 -0.035447203839020947 -0.03268777149009146 -0.029710311203352893 -0.02657600079000329 -0.023350632152509536 -0.020104471785378785 -0.016908473059126117 -0.013833413444133677 -0.010945870229996504 -0.008306906826966389 -0.005968203007674254 -0.003970811138171373 -0.0023423273966766715 -0.0010971784182610123 -0.0002369685749686731 0.00024656748608140576 0.00037560984254726373 0.00021911922214470732 0.0 -0.00019757174515307044 -0.0008284116807248587 -0.0019027671150783163 -0.0034143948589778314 -0.005339988173667749 -0.007643077125351002 -0.010276964549958505 -0.013189906527121657 -0.016326703079118543 -0.01963265813187326 -0.02305308803764878 -0.02653609474573532 -0.030030536299884236 -0.033488236935252054 -0.03686122012219529 -0.040103970993796915 -0.04317055780248169 -0.0460173047782473 -0.0486001493032747 -0.05087783313616213 -0.052809619852625014 -0.054358941485527626 -0.055491451413986044 -0.0561789566230352 -0.05639768279296051 -0.056132255868543236 -0.0553739931261618 -0.054124660926035024 -0.05239457376834279 -0.050205846855297026 -0.04759008665411839 -0.04459088230621473 -0.04126091281025312 -0.03766348895526905 -0.033868990538258 -0.029955384557766508 -0.02600403878514121 -0.022099294617484114 -0.018323866243890933 -0.014757721690358905 -0.01147346027176524 -0.008534965729845405 -0.005993403777859861 -0.003886400718326251 -0.0022354601911727823 -0.0010457790569006874 -0.00030253256992934135 3.828029868152604e-05 7.563862467710041e-05 0.0 -0.0002972208555684022 -0.0011656731175998466 -0.0025812469577671214 -0.004510894220258342 -0.006912596383517076 -0.009735433841786233 -0.012923088171498684 -0.01641470862309791 -0.02014898526749774 -0.02406368953108799 -0.028099027309634712 -0.0321956043980175 -0.03629722015013027 -0.04034784173990412 -0.04429435364647411 -0.048083182289087964 -0.05166339243177202 -0.054983398871716334 -0.05799458299196155 -0.06064831191307172 -0.06290006853727441 -0.06470682866479362 -0.0660315703310282 -0.0668409372225201 -0.06710990987397178 -0.06681960248307897 -0.06596182943922092 -0.064536834364174 -0.06255746235886336 -0.06004659976179863 -0.05704066394848416 -0.0535865425400912 -0.04974414663028558 -0.04558268998525139 -0.04118213261995505 -0.03662874706076208 -0.03201541836984292 -0.02743660963565238 -0.022987677730915704 -0.01875955922640922 -0.01483748469693955 -0.01129592274984163 -0.008197260882183097 -0.005587597659860373 -0.0034956521858068934 -0.0019288146750341467 -0.0008697400793238651 -0.00026741539128137954 -2.6049186104468107e-05 0.0 -0.00039042589967936683 -0.001494908218071759 -0.0032523993811064142 -0.005601986930225527 -0.008479586378312124 -0.011819129324277252 -0.015551755607786025 -0.0196088517280025 -0.023921016674853586 -0.028421361303077833 -0.03304329916956025 -0.037723638882162014 -0.04239936126333001 -0.04701072654625882 -0.05149752723917795 -0.05580251129023527 -0.05986755362631878 -0.06363758616123869 -0.06705698189574083 -0.07007403476696397 -0.07263768655572393 -0.07470246581091076 -0.07622554974305804 -0.07717197561134272 -0.07751193312814449 -0.07722600388081553 -0.07630251858647169 -0.07474254703845842 -0.07255711628905821 -0.06977165488095816 -0.06642284780752948 -0.06256223729511286 -0.058252498110957444 -0.053569931741801316 -0.04860000489197657 -0.04343857240001134 -0.038186657389938976 -0.032950418900643874 -0.027835367458666833 -0.02294534012786035 -0.018376596942022348 -0.014216298902842005 -0.01053707967702914 -0.007395500096376474 -0.0048273296638943865 -0.0028455853024861423 -0.0014353994801972639 -0.0005503708718919283 -0.00010872892374502626 0.0 -0.0004781924313053261 -0.0018130291225803563 -0.003906873447900805 -0.006669818982606811 -0.010016414440111972 -0.01386311346280281 -0.018129742911363326 -0.022737342000197155 -0.027610763530205994 -0.0326759284308313 -0.03786284506096123 -0.043102050274899266 -0.04832790051924745 -0.05347443131242672 -0.058479027313068546 -0.06327806145047557 -0.06781108557232927 -0.07201657261969034 -0.07583669073827617 -0.0792133446822144 -0.0820934769827896 -0.08442546548862948 -0.0861647965694926 -0.08727077087315636 -0.08771233383520362 -0.0874649739833678 -0.08651646083008903 -0.08486377138393959 -0.08251845521775075 -0.07950338089836302 -0.07585741638448486 -0.07163175114942194 -0.0668935633320873 -0.061721672130812415 -0.05620889973075219 -0.05045688508359337 -0.04457698240596173 -0.03868425520643225 -0.032896999287668045 -0.027330219524752848 -0.022094168911836968 -0.017287884569464725 -0.012997330502599134 -0.009289605403809558 -0.006211100028171336 -0.003782607263419906 -0.0019976211382459878 -0.0008192600364643629 -0.0001821520005111465 0.0 -0.0005627466349321533 -0.0021193823954246648 -0.004538285297438575 -0.007702832914012206 -0.011505249004759199 -0.015846300985078467 -0.020632051109626192 -0.025775345333318912 -0.03119228381136329 -0.03680472296974545 -0.042536215354839105 -0.048315174164243864 -0.054070285042292394 -0.059734226136542924 -0.06523878520515682 -0.07051917718964316 -0.07550917187633911 -0.0801460515250142 -0.08436598173989984 -0.08810956399759085 -0.09131755861032964 -0.09393689852640592 -0.0959167710517772 -0.09721490682847164 -0.09779396103763348 -0.09762786377509733 -0.09669839233909167 -0.09500133957602805 -0.09254311310930843 -0.08934642898519912 -0.08544670355312148 -0.08089691752959074 -0.07576350258326954 -0.0701299847779868 -0.06409206284232258 -0.0577596936451547 -0.051251176920545476 -0.04469354509488662 -0.038215741988889954 -0.031947520081023945 -0.02601217208931833 -0.020524505237039303 -0.015583881411150734 -0.011272022207464615 -0.007647155499475221 -0.0047423925740021034 -0.0025619606495156694 -0.0010817912272611406 -0.00025098167032941584 0.0 -0.0006446517686734836 -0.0024120412523015926 -0.005142032904443667 -0.008692082422277326 -0.012934589778074948 -0.017752886199679345 -0.02304161952854457 -0.02870247306378666 -0.03464586416176299 -0.04078624364618941 -0.047044823975827675 -0.05334443039598088 -0.05961303993479396 -0.06577832348701367 -0.0717719368179221 -0.07752401728164682 -0.0829682168187955 -0.08803639091782499 -0.09266430952486904 -0.09678667782496984 -0.10034339305465485 -0.10327494769400793 -0.10552906383051924 -0.10705647345336838 -0.1078177510727721 -0.10777942635604561 -0.1069208201101707 -0.10523039173894035 -0.10271233468829254 -0.0993829742554384 -0.09527678786767413 -0.09044255433534872 -0.08494836000770661 -0.07887710622493596 -0.07233001434873301 -0.06542110769838592 -0.05827882862935276 -0.05103930846321392 -0.04384601864030109 -0.036842043142165395 -0.03016815827468421 -0.023954809702036596 -0.01831946807542557 -0.013359367625406446 -0.009149230447226712 -0.005735999437714098 -0.003138289594374978 -0.0013449038082298393 -0.00031829870033691623 0.0 -0.0007222500212225795 -0.0026889842694318845 -0.005714057097156625 -0.009632281726514392 -0.014295477994943687 -0.019572278803593666 -0.025343458998753027 -0.03150278557197022 -0.03795172133012069 -0.04460147155507812 -0.051367210702590475 -0.05817118428656044 -0.0649366239155694 -0.07159181115762207 -0.07806392373119495 -0.08428399574548175 -0.09018092028581773 -0.09568719969054403 -0.10073325350935002 -0.10525380595894307 -0.1091825777203978 -0.11245914201884868 -0.11502403799649089 -0.11682593862103344 -0.11781720111685952 -0.11796119976018986 -0.11722829328987562 -0.11560314624713654 -0.11308101138686184 -0.10967476926149052 -0.10541128275151039 -0.100337733825486 -0.09451763664583616 -0.08803590090356656 -0.0809939724182352 -0.0735130123661335 -0.065727691094501 -0.05778706400433143 -0.049846875055284685 -0.042068186026638275 -0.034608630779581574 -0.027619504226198802 -0.02123704419182759 -0.015579242526912767 -0.01073864646196916 -0.0067804271735948055 -0.0037383563867844334 -0.0016157837812044965 -0.00038642973605320665 0.0 -0.0007942863014313494 -0.0029484225770289455 -0.006252456440534916 -0.010518767832402178 -0.01558175831972804 -0.0212937257130692 -0.02752512388274472 -0.034158932169419745 -0.041091942918656935 -0.04822840606934714 -0.05548249715263154 -0.06277157798158652 -0.07001983625974222 -0.0771514530930609 -0.08409533027987959 -0.09077838852054644 -0.09713123096278473 -0.10308172093756393 -0.10856139199622433 -0.11349939703256336 -0.11782947595529095 -0.1214843412539626 -0.12440304874307738 -0.12652588182186056 -0.1278020122739232 -0.1281849369923465 -0.12764032234289663 -0.12614199121055664 -0.12367977514470672 -0.12025591376888553 -0.11589257682571838 -0.110628323941564 -0.10452473439303844 -0.09766234265599395 -0.09014562383421534 -0.08209769740283082 -0.0736629171762632 -0.06499978894180658 -0.05628076032653928 -0.047683335912658505 -0.039387379541085475 -0.031565242019177944 -0.024377753302464125 -0.01796496218965851 -0.012442601299240894 -0.007895381602543886 -0.004375761151823346 -0.0019014610122056945 -0.0004577071392646312 0.0 -0.0008605475487170684 -0.003190150854578173 -0.006754943567152913 -0.011347992232873996 -0.016785604556077555 -0.02290759207645732 -0.029571850075953903 -0.036654999645104276 -0.044045659373793934 -0.05164618751805459 -0.05936534802232948 -0.06712135940703658 -0.07483438745898892 -0.08243087169481715 -0.08983611013027282 -0.09697969328116407 -0.1037883410001416 -0.11019221741988149 -0.11611811987180293 -0.12149645064606877 -0.1262548353535356 -0.1303255757626755 -0.1336397867406086 -0.13613522639086492 -0.1377510619683298 -0.13843602510929695 -0.1381439017943842 -0.13684193938450465 -0.13450705555597114 -0.1311342901552978 -0.12673351565250449 -0.12133747613963504 -0.11499847816476022 -0.1077952509438777 -0.09982880046181637 -0.09122710641220393 -0.08213922296514431 -0.07273691991235627 -0.06320643509693222 -0.05374675820809496 -0.04455928199344495 -0.035843472542971946 -0.027785800056504426 -0.020554617614263773 -0.014290603429145312 -0.009103144325349411 -0.005064504358238335 -0.0022094469970558796 -0.0005342071247713732 0.0 -0.0009219135156456287 -0.003413313388220498 -0.007219434408680154 -0.012114151482296739 -0.017899623748979163 -0.02440170053875878 -0.03147023810449078 -0.0389723874522014 -0.04679366176837726 -0.054830184870669554 -0.06299105919478477 -0.07119024539820776 -0.0793503444826503 -0.08739448014095 -0.09525136052338025 -0.10284736955253365 -0.1101126669798358 -0.11697360730156298 -0.12335961597395313 -0.1291960179436681 -0.1344114732344196 -0.13893131103475118 -0.14268540048582073 -0.14560213133294056 -0.14761669179834394 -0.14866586652622737 -0.14869673391976285 -0.1476624090317041 -0.1455311011868933 -0.14228276325833322 -0.1379182301282238 -0.13245642538532307 -0.12594294134217876 -0.11844704299224429 -0.11006864667872313 -0.1009340020745046 -0.09119979888571653 -0.08104637722280351 -0.07067795106926422 -0.060312793163816804 -0.050179524107564606 -0.04050498676096201 -0.031508012009601356 -0.02338715275205435 -0.016314546123219406 -0.010426394506365837 -0.005819578044973331 -0.002547023446146411 -0.0006182041591064096 0.0 -0.0009782125785232588 -0.003616746989266906 -0.0076417480611989256 -0.012811812847764236 -0.018914258238178522 -0.02576545829097287 -0.03320466320499816 -0.04109458507521382 -0.04931354246521705 -0.05775715607284912 -0.06632976746359281 -0.07494758128677534 -0.08352990393017075 -0.09200370284074494 -0.10029497001609862 -0.10833448591323154 -0.116049473301694 -0.1233702801947076 -0.13022241600654613 -0.1365338863663051 -0.14222770100490917 -0.14722968896872257 -0.1514616224819275 -0.15484947099306084 -0.1573173531213107 -0.15879629023736888 -0.15921921951748802 -0.15853031747422494 -0.15668121845593258 -0.15364083743605617 -0.14939268644500533 -0.14394479668965318 -0.13732759160527125 -0.12960301215600542 -0.12086186088403097 -0.1112307189358582 -0.10086725595950365 -0.08996332457008129 -0.07873684479462731 -0.06743000888853795 -0.05629737663568237 -0.04559962373637068 -0.03558932444419449 -0.026502623166791677 -0.018545901985976946 -0.01188889066163883 -0.006655662869777752 -0.00292188684283887 -0.0007117424129325163 0.0 -0.001028638144806829 -0.0037977372339855694 -0.008018348146595283 -0.013434109528370767 -0.019821845596513604 -0.026986568177975546 -0.03476185873957518 -0.043002336799133165 -0.05158480132020625 -0.060399445995536136 -0.06935234032021725 -0.07835615278988693 -0.08733411329951164 -0.09621070382091627 -0.10491697544910365 -0.11338146138344235 -0.12153657235284444 -0.1293098548548267 -0.13663115413337779 -0.14342430019053187 -0.14961480297409654 -0.1551220931654401 -0.15986765883896248 -0.16376805717570259 -0.16674355333670537 -0.16871219558255843 -0.16959910884497365 -0.16933192498879826 -0.16785084908900352 -0.16510558965612457 -0.16106608854020604 -0.15572073646647372 -0.14908718915107305 -0.14121105786795038 -0.13217555904914635 -0.12209915270151388 -0.11114212394907408 -0.09950117437791282 -0.08741092122007793 -0.07513383436795684 -0.06295566701277372 -0.05117082376676424 -0.040073002317132095 -0.02993863929610371 -0.02101647630346382 -0.013513527782350664 -0.007587970309404101 -0.003341360509608529 -0.0008170985038864237 0.0 -0.0010717256189685252 -0.003954455983144834 -0.008345000757177175 -0.013976221037920619 -0.020613452998874265 -0.028055147770195157 -0.03612618247190348 -0.04467865421476526 -0.053583254938690796 -0.06273115856437282 -0.07202444755060754 -0.08137944028004292 -0.0907168227981548 -0.09996643209151167 -0.10905748419020651 -0.11792459306601091 -0.12649828469035468 -0.1347119221134432 -0.1424925973222103 -0.14976866319096763 -0.15646110628006202 -0.16249152071355777 -0.16777415191010867 -0.1722243258212666 -0.175751464239222 -0.1782681406410136 -0.17968444364747657 -0.17991790385494566 -0.17888955552396035 -0.1765348938424618 -0.1728017693981825 -0.1676622019129267 -0.1611117409337753 -0.15318130538826308 -0.14393682348274217 -0.13348934605020432 -0.1219928327792804 -0.10964998422605925 -0.09670556625302078 -0.0834455110583895 -0.0701840580639757 -0.05725548917597095 -0.044996055415235506 -0.03373101484894383 -0.023755702527849407 -0.015323314540278882 -0.008630932908931134 -0.0038131106857048507 -0.0009363052359432282 0.0 -0.0011072169690971277 -0.004085029778448483 -0.008619377631501073 -0.014432335762834111 -0.021282416215597094 -0.028959294502369122 -0.03728455618366668 -0.04610368411139896 -0.05528750941291364 -0.06472266031224687 -0.07431429278262057 -0.08397585521503416 -0.09363329375903115 -0.10321469791057654 -0.11265586781391364 -0.1218901414594193 -0.13085501782964676 -0.13948230000779827 -0.14770543039189107 -0.15545004047850453 -0.16264175124415603 -0.1691972786003448 -0.17503262945662743 -0.18005502849841465 -0.18417163716195742 -0.18728269249736884 -0.18929103511525253 -0.19009692889531327 -0.18960874177449658 -0.18773986660229752 -0.1844207598205858 -0.17959808361894355 -0.17324783271201374 -0.1653761158456056 -0.15603217354895005 -0.14530907192599074 -0.13335414884877195 -0.12036664835751688 -0.10660217443133858 -0.09236391804785087 -0.07799826652295909 -0.06387804154542168 -0.05038948060037265 -0.037910037337839576 -0.0267915613144804 -0.01733937624847453 -0.009799153631806128 -0.004344307387788937 -0.0010716475373698097 0.0 -0.0011350654268507381 -0.004188991407737 -0.008838244617231521 -0.01479856405363685 -0.021820424856547723 -0.029689938941807107 -0.03822196827949816 -0.04726138326742419 -0.05667395144529567 -0.06634859758278917 -0.07618708743558811 -0.08610767269957592 -0.09603432130798388 -0.10590178496779895 -0.1156448311154195 -0.12520450331595712 -0.1345175780043337 -0.14352366830447347 -0.15215501428289788 -0.16034411422905123 -0.16801396157941823 -0.17508603480235474 -0.18147118681678087 -0.18707802853420036 -0.19180481576914715 -0.19554847062327807 -0.19819795539213597 -0.19964434421121752 -0.19977626828167985 -0.19849150560636458 -0.19569501818343477 -0.19131232637450218 -0.1852902409405554 -0.1776116082812714 -0.16829783620940192 -0.15742326694807118 -0.14511697676711557 -0.1315732927412962 -0.11704873469865992 -0.10186413632822626 -0.08639255919611799 -0.07104995852246174 -0.05627316481057726 -0.0425010264129962 -0.