# vtk DataFile Version 3.0
vtk output
ASCII
DATASET STRUCTURED_GRID
DIMENSIONS 51 51 1
POINTS 2601 float
0.0 0.0 0.0
0.02 0.0 0.0
0.04 0.0 0.0
0.06 0.0 0.0
0.08 0.0 0.0
0.1 0.0 0.0
0.12 0.0 0.0
0.14 0.0 0.0
0.16 0.0 0.0
0.18 0.0 0.0
0.2 0.0 0.0
0.22 0.0 0.0
0.24 0.0 0.0
0.26 0.0 0.0
0.28 0.0 0.0
0.3 0.0 0.0
0.32 0.0 0.0
0.34 0.0 0.0
0.36 0.0 0.0
0.38 0.0 0.0
0.4 0.0 0.0
0.42 0.0 0.0
0.44 0.0 0.0
0.46 0.0 0.0
0.48 0.0 0.0
0.5 0.0 0.0
0.52 0.0 0.0
0.54 0.0 0.0
0.56 0.0 0.0
0.58 0.0 0.0
0.6 0.0 0.0
0.62 0.0 0.0
0.64 0.0 0.0
0.66 0.0 0.0
0.68 0.0 0.0
0.7000000000000001 0.0 0.0
0.72 0.0 0.0
0.74 0.0 0.0
0.76 0.0 0.0
0.78 0.0 0.0
0.8 0.0 0.0
0.8200000000000001 0.0 0.0
0.84 0.0 0.0
0.86 0.0 0.0
0.88 0.0 0.0
0.9 0.0 0.0
0.92 0.0 0.0
0.9400000000000001 0.0 0.0
0.96 0.0 0.0
0.98 0.0 0.0
1.0 0.0 0.0
0.0 0.02 0.0
0.02 0.02 0.0
0.04 0.02 0.0
0.06 0.02 0.0
0.08 0.02 0.0
0.1 0.02 0.0
0.12 0.02 0.0
0.14 0.02 0.0
0.16 0.02 0.0
0.18 0.02 0.0
0.2 0.02 0.0
0.22 0.02 0.0
0.24 0.02 0.0
0.26 0.02 0.0
0.28 0.02 0.0
0.3 0.02 0.0
0.32 0.02 0.0
0.34 0.02 0.0
0.36 0.02 0.0
0.38 0.02 0.0
0.4 0.02 0.0
0.42 0.02 0.0
0.44 0.02 0.0
0.46 0.02 0.0
0.48 0.02 0.0
0.5 0.02 0.0
0.52 0.02 0.0
0.54 0.02 0.0
0.56 0.02 0.0
0.58 0.02 0.0
0.6 0.02 0.0
0.62 0.02 0.0
0.64 0.02 0.0
0.66 0.02 0.0
0.68 0.02 0.0
0.7000000000000001 0.02 0.0
0.72 0.02 0.0
0.74 0.02 0.0
0.76 0.02 0.0
0.78 0.02 0.0
0.8 0.02 0.0
0.8200000000000001 0.02 0.0
0.84 0.02 0.0
0.86 0.02 0.0
0.88 0.02 0.0
0.9 0.02 0.0
0.92 0.02 0.0
0.9400000000000001 0.02 0.0
0.96 0.02 0.0
0.98 0.02 0.0
1.0 0.02 0.0
0.0 0.04 0.0
0.02 0.04 0.0
0.04 0.04 0.0
0.06 0.04 0.0
0.08 0.04 0.0
0.1 0.04 0.0
0.12 0.04 0.0
0.14 0.04 0.0
0.16 0.04 0.0
0.18 0.04 0.0
0.2 0.04 0.0
0.22 0.04 0.0
0.24 0.04 0.0
0.26 0.04 0.0
0.28 0.04 0.0
0.3 0.04 0.0
0.32 0.04 0.0
0.34 0.04 0.0
0.36 0.04 0.0
0.38 0.04 0.0
0.4 0.04 0.0
0.42 0.04 0.0
0.44 0.04 0.0
0.46 0.04 0.0
0.48 0.04 0.0
0.5 0.04 0.0
0.52 0.04 0.0
0.54 0.04 0.0
0.56 0.04 0.0
0.58 0.04 0.0
0.6 0.04 0.0
0.62 0.04 0.0
0.64 0.04 0.0
0.66 0.04 0.0
0.68 0.04 0.0
0.7000000000000001 0.04 0.0
0.72 0.04 0.0
0.74 0.04 0.0
0.76 0.04 0.0
0.78 0.04 0.0
0.8 0.04 0.0
0.8200000000000001 0.04 0.0
0.84 0.04 0.0
0.86 0.04 0.0
0.88 0.04 0.0
0.9 0.04 0.0
0.92 0.04 0.0
0.9400000000000001 0.04 0.0
0.96 0.04 0.0
0.98 0.04 0.0
1.0 0.04 0.0
0.0 0.06 0.0
0.02 0.06 0.0
0.04 0.06 0.0
0.06 0.06 0.0
0.08 0.06 0.0
0.1 0.06 0.0
0.12 0.06 0.0
0.14 0.06 0.0
0.16 0.06 0.0
0.18 0.06 0.0
0.2 0.06 0.0
0.22 0.06 0.0
0.24 0.06 0.0
0.26 0.06 0.0
0.28 0.06 0.0
0.3 0.06 0.0
0.32 0.06 0.0
0.34 0.06 0.0
0.36 0.06 0.0
0.38 0.06 0.0
0.4 0.06 0.0
0.42 0.06 0.0
0.44 0.06 0.0
0.46 0.06 0.0
0.48 0.06 0.0
0.5 0.06 0.0
0.52 0.06 0.0
0.54 0.06 0.0
0.56 0.06 0.0
0.58 0.06 0.0
0.6 0.06 0.0
0.62 0.06 0.0
0.64 0.06 0.0
0.66 0.06 0.0
0.68 0.06 0.0
0.7000000000000001 0.06 0.0
0.72 0.06 0.0
0.74 0.06 0.0
0.76 0.06 0.0
0.78 0.06 0.0
0.8 0.06 0.0
0.8200000000000001 0.06 0.0
0.84 0.06 0.0
0.86 0.06 0.0
0.88 0.06 0.0
0.9 0.06 0.0
0.92 0.06 0.0
0.9400000000000001 0.06 0.0
0.96 0.06 0.0
0.98 0.06 0.0
1.0 0.06 0.0
0.0 0.08 0.0
0.02 0.08 0.0
0.04 0.08 0.0
0.06 0.08 0.0
0.08 0.08 0.0
0.1 0.08 0.0
0.12 0.08 0.0
0.14 0.08 0.0
0.16 0.08 0.0
0.18 0.08 0.0
0.2 0.08 0.0
0.22 0.08 0.0
0.24 0.08 0.0
0.26 0.08 0.0
0.28 0.08 0.0
0.3 0.08 0.0
0.32 0.08 0.0
0.34 0.08 0.0
0.36 0.08 0.0
0.38 0.08 0.0
0.4 0.08 0.0
0.42 0.08 0.0
0.44 0.08 0.0
0.46 0.08 0.0
0.48 0.08 0.0
0.5 0.08 0.0
0.52 0.08 0.0
0.54 0.08 0.0
0.56 0.08 0.0
0.58 0.08 0.0
0.6 0.08 0.0
0.62 0.08 0.0
0.64 0.08 0.0
0.66 0.08 0.0
0.68 0.08 0.0
0.7000000000000001 0.08 0.0
0.72 0.08 0.0
0.74 0.08 0.0
0.76 0.08 0.0
0.78 0.08 0.0
0.8 0.08 0.0
0.8200000000000001 0.08 0.0
0.84 0.08 0.0
0.86 0.08 0.0
0.88 0.08 0.0
0.9 0.08 0.0
0.92 0.08 0.0
0.9400000000000001 0.08 0.0
0.96 0.08 0.0
0.98 0.08 0.0
1.0 0.08 0.0
0.0 0.1 0.0
0.02 0.1 0.0
0.04 0.1 0.0
0.06 0.1 0.0
0.08 0.1 0.0
0.1 0.1 0.0
0.12 0.1 0.0
0.14 0.1 0.0
0.16 0.1 0.0
0.18 0.1 0.0
0.2 0.1 0.0
0.22 0.1 0.0
0.24 0.1 0.0
0.26 0.1 0.0
0.28 0.1 0.0
0.3 0.1 0.0
0.32 0.1 0.0
0.34 0.1 0.0
0.36 0.1 0.0
0.38 0.1 0.0
0.4 0.1 0.0
0.42 0.1 0.0
0.44 0.1 0.0
0.46 0.1 0.0
0.48 0.1 0.0
0.5 0.1 0.0
0.52 0.1 0.0
0.54 0.1 0.0
0.56 0.1 0.0
0.58 0.1 0.0
0.6 0.1 0.0
0.62 0.1 0.0
0.64 0.1 0.0
0.66 0.1 0.0
0.68 0.1 0.0
0.7000000000000001 0.1 0.0
0.72 0.1 0.0
0.74 0.1 0.0
0.76 0.1 0.0
0.78 0.1 0.0
0.8 0.1 0.0
0.8200000000000001 0.1 0.0
0.84 0.1 0.0
0.86 0.1 0.0
0.88 0.1 0.0
0.9 0.1 0.0
0.92 0.1 0.0
0.9400000000000001 0.1 0.0
0.96 0.1 0.0
0.98 0.1 0.0
1.0 0.1 0.0
0.0 0.12 0.0
0.02 0.12 0.0
0.04 0.12 0.0
0.06 0.12 0.0
0.08 0.12 0.0
0.1 0.12 0.0
0.12 0.12 0.0
0.14 0.12 0.0
0.16 0.12 0.0
0.18 0.12 0.0
0.2 0.12 0.0
0.22 0.12 0.0
0.24 0.12 0.0
0.26 0.12 0.0
0.28 0.12 0.0
0.3 0.12 0.0
0.32 0.12 0.0
0.34 0.12 0.0
0.36 0.12 0.0
0.38 0.12 0.0
0.4 0.12 0.0
0.42 0.12 0.0
0.44 0.12 0.0
0.46 0.12 0.0
0.48 0.12 0.0
0.5 0.12 0.0
0.52 0.12 0.0
0.54 0.12 0.0
0.56 0.12 0.0
0.58 0.12 0.0
0.6 0.12 0.0
0.62 0.12 0.0
0.64 0.12 0.0
0.66 0.12 0.0
0.68 0.12 0.0
0.7000000000000001 0.12 0.0
0.72 0.12 0.0
0.74 0.12 0.0
0.76 0.12 0.0
0.78 0.12 0.0
0.8 0.12 0.0
0.8200000000000001 0.12 0.0
0.84 0.12 0.0
0.86 0.12 0.0
0.88 0.12 0.0
0.9 0.12 0.0
0.92 0.12 0.0
0.9400000000000001 0.12 0.0
0.96 0.12 0.0
0.98 0.12 0.0
1.0 0.12 0.0
0.0 0.14 0.0
0.02 0.14 0.0
0.04 0.14 0.0
0.06 0.14 0.0
0.08 0.14 0.0
0.1 0.14 0.0
0.12 0.14 0.0
0.14 0.14 0.0
0.16 0.14 0.0
0.18 0.14 0.0
0.2 0.14 0.0
0.22 0.14 0.0
0.24 0.14 0.0
0.26 0.14 0.0
0.28 0.14 0.0
0.3 0.14 0.0
0.32 0.14 0.0
0.34 0.14 0.0
0.36 0.14 0.0
0.38 0.14 0.0
0.4 0.14 0.0
0.42 0.14 0.0
0.44 0.14 0.0
0.46 0.14 0.0
0.48 0.14 0.0
0.5 0.14 0.0
0.52 0.14 0.0
0.54 0.14 0.0
0.56 0.14 0.0
0.58 0.14 0.0
0.6 0.14 0.0
0.62 0.14 0.0
0.64 0.14 0.0
0.66 0.14 0.0
0.68 0.14 0.0
0.7000000000000001 0.14 0.0
0.72 0.14 0.0
0.74 0.14 0.0
0.76 0.14 0.0
0.78 0.14 0.0
0.8 0.14 0.0
0.8200000000000001 0.14 0.0
0.84 0.14 0.0
0.86 0.14 0.0
0.88 0.14 0.0
0.9 0.14 0.0
0.92 0.14 0.0
0.9400000000000001 0.14 0.0
0.96 0.14 0.0
0.98 0.14 0.0
1.0 0.14 0.0
0.0 0.16 0.0
0.02 0.16 0.0
0.04 0.16 0.0
0.06 0.16 0.0
0.08 0.16 0.0
0.1 0.16 0.0
0.12 0.16 0.0
0.14 0.16 0.0
0.16 0.16 0.0
0.18 0.16 0.0
0.2 0.16 0.0
0.22 0.16 0.0
0.24 0.16 0.0
0.26 0.16 0.0
0.28 0.16 0.0
0.3 0.16 0.0
0.32 0.16 0.0
0.34 0.16 0.0
0.36 0.16 0.0
0.38 0.16 0.0
0.4 0.16 0.0
0.42 0.16 0.0
0.44 0.16 0.0
0.46 0.16 0.0
0.48 0.16 0.0
0.5 0.16 0.0
0.52 0.16 0.0
0.54 0.16 0.0
0.56 0.16 0.0
0.58 0.16 0.0
0.6 0.16 0.0
0.62 0.16 0.0
0.64 0.16 0.0
0.66 0.16 0.0
0.68 0.16 0.0
0.7000000000000001 0.16 0.0
0.72 0.16 0.0
0.74 0.16 0.0
0.76 0.16 0.0
0.78 0.16 0.0
0.8 0.16 0.0
0.8200000000000001 0.16 0.0
0.84 0.16 0.0
0.86 0.16 0.0
0.88 0.16 0.0
0.9 0.16 0.0
0.92 0.16 0.0
0.9400000000000001 0.16 0.0
0.96 0.16 0.0
0.98 0.16 0.0
1.0 0.16 0.0
0.0 0.18 0.0
0.02 0.18 0.0
0.04 0.18 0.0
0.06 0.18 0.0
0.08 0.18 0.0
0.1 0.18 0.0
0.12 0.18 0.0
0.14 0.18 0.0
0.16 0.18 0.0
0.18 0.18 0.0
0.2 0.18 0.0
0.22 0.18 0.0
0.24 0.18 0.0
0.26 0.18 0.0
0.28 0.18 0.0
0.3 0.18 0.0
0.32 0.18 0.0
0.34 0.18 0.0
0.36 0.18 0.0
0.38 0.18 0.0
0.4 0.18 0.0
0.42 0.18 0.0
0.44 0.18 0.0
0.46 0.18 0.0
0.48 0.18 0.0
0.5 0.18 0.0
0.52 0.18 0.0
0.54 0.18 0.0
0.56 0.18 0.0
0.58 0.18 0.0
0.6 0.18 0.0
0.62 0.18 0.0
0.64 0.18 0.0
0.66 0.18 0.0
0.68 0.18 0.0
0.7000000000000001 0.18 0.0
0.72 0.18 0.0
0.74 0.18 0.0
0.76 0.18 0.0
0.78 0.18 0.0
0.8 0.18 0.0
0.8200000000000001 0.18 0.0
0.84 0.18 0.0
0.86 0.18 0.0
0.88 0.18 0.0
0.9 0.18 0.0
0.92 0.18 0.0
0.9400000000000001 0.18 0.0
0.96 0.18 0.0
0.98 0.18 0.0
1.0 0.18 0.0
0.0 0.2 0.0
0.02 0.2 0.0
0.04 0.2 0.0
0.06 0.2 0.0
0.08 0.2 0.0
0.1 0.2 0.0
0.12 0.2 0.0
0.14 0.2 0.0
0.16 0.2 0.0
0.18 0.2 0.0
0.2 0.2 0.0
0.22 0.2 0.0
0.24 0.2 0.0
0.26 0.2 0.0
0.28 0.2 0.0
0.3 0.2 0.0
0.32 0.2 0.0
0.34 0.2 0.0
0.36 0.2 0.0
0.38 0.2 0.0
0.4 0.2 0.0
0.42 0.2 0.0
0.44 0.2 0.0
0.46 0.2 0.0
0.48 0.2 0.0
0.5 0.2 0.0
0.52 0.2 0.0
0.54 0.2 0.0
0.56 0.2 0.0
0.58 0.2 0.0
0.6 0.2 0.0
0.62 0.2 0.0
0.64 0.2 0.0
0.66 0.2 0.0
0.68 0.2 0.0
0.7000000000000001 0.2 0.0
0.72 0.2 0.0
0.74 0.2 0.0
0.76 0.2 0.0
0.78 0.2 0.0
0.8 0.2 0.0
0.8200000000000001 0.2 0.0
0.84 0.2 0.0
0.86 0.2 0.0
0.88 0.2 0.0
0.9 0.2 0.0
0.92 0.2 0.0
0.9400000000000001 0.2 0.0
0.96 0.2 0.0
0.98 0.2 0.0
1.0 0.2 0.0
0.0 0.22 0.0
0.02 0.22 0.0
0.04 0.22 0.0
0.06 0.22 0.0
0.08 0.22 0.0
0.1 0.22 0.0
0.12 0.22 0.0
0.14 0.22 0.0
0.16 0.22 0.0
0.18 0.22 0.0
0.2 0.22 0.0
0.22 0.22 0.0
0.24 0.22 0.0
0.26 0.22 0.0
0.28 0.22 0.0
0.3 0.22 0.0
0.32 0.22 0.0
0.34 0.22 0.0
0.36 0.22 0.0
0.38 0.22 0.0
0.4 0.22 0.0
0.42 0.22 0.0
0.44 0.22 0.0
0.46 0.22 0.0
0.48 0.22 0.0
0.5 0.22 0.0
0.52 0.22 0.0
0.54 0.22 0.0
0.56 0.22 0.0
0.58 0.22 0.0
0.6 0.22 0.0
0.62 0.22 0.0
0.64 0.22 0.0
0.66 0.22 0.0
0.68 0.22 0.0
0.7000000000000001 0.22 0.0
0.72 0.22 0.0
0.74 0.22 0.0
0.76 0.22 0.0
0.78 0.22 0.0
0.8 0.22 0.0
0.8200000000000001 0.22 0.0
0.84 0.22 0.0
0.86 0.22 0.0
0.88 0.22 0.0
0.9 0.22 0.0
0.92 0.22 0.0
0.9400000000000001 0.22 0.0
0.96 0.22 0.0
0.98 0.22 0.0
1.0 0.22 0.0
0.0 0.24 0.0
0.02 0.24 0.0
0.04 0.24 0.0
0.06 0.24 0.0
0.08 0.24 0.0
0.1 0.24 0.0
0.12 0.24 0.0
0.14 0.24 0.0
0.16 0.24 0.0
0.18 0.24 0.0
0.2 0.24 0.0
0.22 0.24 0.0
0.24 0.24 0.0
0.26 0.24 0.0
0.28 0.24 0.0
0.3 0.24 0.0
0.32 0.24 0.0
0.34 0.24 0.0
0.36 0.24 0.0
0.38 0.24 0.0
0.4 0.24 0.0
0.42 0.24 0.0
0.44 0.24 0.0
0.46 0.24 0.0
0.48 0.24 0.0
0.5 0.24 0.0
0.52 0.24 0.0
0.54 0.24 0.0
0.56 0.24 0.0
0.58 0.24 0.0
0.6 0.24 0.0
0.62 0.24 0.0
0.64 0.24 0.0
0.66 0.24 0.0
0.68 0.24 0.0
0.7000000000000001 0.24 0.0
0.72 0.24 0.0
0.74 0.24 0.0
0.76 0.24 0.0
0.78 0.24 0.0
0.8 0.24 0.0
0.8200000000000001 0.24 0.0
0.84 0.24 0.0
0.86 0.24 0.0
0.88 0.24 0.0
0.9 0.24 0.0
0.92 0.24 0.0
0.9400000000000001 0.24 0.0
0.96 0.24 0.0
0.98 0.24 0.0
1.0 0.24 0.0
0.0 0.26 0.0
0.02 0.26 0.0
0.04 0.26 0.0
0.06 0.26 0.0
0.08 0.26 0.0
0.1 0.26 0.0
0.12 0.26 0.0
0.14 0.26 0.0
0.16 0.26 0.0
0.18 0.26 0.0
0.2 0.26 0.0
0.22 0.26 0.0
0.24 0.26 0.0
0.26 0.26 0.0
0.28 0.26 0.0
0.3 0.26 0.0
0.32 0.26 0.0
0.34 0.26 0.0
0.36 0.26 0.0
0.38 0.26 0.0
0.4 0.26 0.0
0.42 0.26 0.0
0.44 0.26 0.0
0.46 0.26 0.0
0.48 0.26 0.0
[...]
CELL_DATA 2500
SCALARS u float 1
LOOKUP_TABLE u_cell_table
-0.0004924629911189414 -0.0004008587607203456 -0.0002802583478146145 -0.00021522581090505967 -0.0002318335784110044 -0.00033885535106935793 -0.000534218110823275 -0.0008117394026384737 -0.0011632426212622336 -0.0015768738530331904 -0.002035495375536672 -0.0025180545719406065 -0.0030031400195800993 -0.003473161609285455 -0.003916530937430025 -0.004327759156387266 -0.004705306292416114 -0.005049349131788084 -0.0053595357539673524 -0.005634319625310059 -0.005870513743130353 -0.006064117952666873 -0.006210526285462463 -0.006305541161867095 -0.006345276831529087 -0.006326901396938048 -0.006248238506160466 -0.006108481720931308 -0.005907769944400093 -0.005647966795779411 -0.0053321553786809936 -0.004965331172991765 -0.004553738609226811 -0.004105445169654743 -0.0036295662530090493 -0.003136722217002361 -0.002638150375267686 -0.0021459763364710064 -0.0016721809086329648 -0.0012286568050374291 -0.0008260795710370215 -0.00047375156851007746 -0.00017822162317336003 5.780891198161052e-05 0.0002391087835281592 0.00038499609255184507 0.0005471744555684156 0.0008479690495566519 0.0015433891456189642 0.0 -0.00039124791766039163 -0.0003694946962872663 -0.0004292360369287392 -0.0006629880962217465 -0.0010799581876666938 -0.0016685365281001899 -0.0024112281227382116 -0.003288609287653636 -0.004280246858474721 -0.005362576549168419 -0.006508570841837423 -0.007688605991167111 -0.008874386028219593 -0.010041134123261911 -0.011169973063657307 -0.012246282937678005 -0.013259204010463403 -0.014198264384754675 -0.015053565062863856 -0.015813413138252526 -0.016466334562135726 -0.01699946317952866 -0.0174015030819307 -0.01766093672826826 -0.01776920832433223 -0.017718426105320005 -0.01750469431137138 -0.01712550724085993 -0.016583291878336934 -0.0158825431428736 -0.015033348075329992 -0.014048156908946802 -0.012945065661807949 -0.011744254048047048 -0.010470924624798122 -0.00915149710200796 -0.007816090918319321 -0.006494531163178031 -0.005218264399759694 -0.00401627868163038 -0.0029164266397926574 -0.0019413594770262919 -0.0011090545955770722 -0.00042843459460958086 0.00010140813970969898 0.0004948876012489952 0.0007739071492913118 0.0009373979775420694 0.0008486380816223369 0.0 9.066306219771177e-08 -0.00015214610833940855 -0.0005293576068379131 -0.001174894005561233 -0.0020765210589430588 -0.00320130993892795 -0.004515642071876802 -0.005987560842541851 -0.007584399988505309 -0.009272802144293562 -0.011019181984606117 -0.01279268207125201 -0.014565683914919863 -0.016315087384799795 -0.01801979748866628 -0.019660654802180037 -0.021217419810484642 -0.02267020456067209 -0.023997339621360872 -0.025178272788315297 -0.026191443712312766 -0.027017834949108768 -0.027638350369671546 -0.028037795396045503 -0.028201755143674123 -0.02812103276607036 -0.027788191663438176 -0.027202415532897848 -0.026365704861750206 -0.025287850036678106 -0.023982143268687563 -0.02247014106192715 -0.020776872201666012 -0.018935179615387446 -0.01698049895763127 -0.014954610031230407 -0.012900083111505544 -0.010863310105276407 -0.008888783918447392 -0.007021397371286477 -0.005300822536091276 -0.0037631522030642578 -0.002435691146420268 -0.0013382894960964683 -0.00047992981906346596 0.0001366890614847138 0.0005085714440729761 0.0006136981233868414 0.00041129472975185555 0.0 0.0002869864915055487 -0.00015372574380132967 -0.000931342903729631 -0.002006714524252585 -0.003358748059671009 -0.004953498688642703 -0.006756160949793381 -0.008731448362872582 -0.010842787134164856 -0.013052476647007736 -0.015325473107671846 -0.017629905520838013 -0.01993839018849373 -0.02222445314230187 -0.02446243368587632 -0.026623874150822787 -0.02868005304084302 -0.030599769533996696 -0.032353673904403885 -0.03391148548038627 -0.03524667073884845 -0.03633251360968221 -0.03714726925918285 -0.03766950130679524 -0.03788404645077806 -0.03777695524040764 -0.03734225944979734 -0.036576505171519114 -0.03548590711582723 -0.03408028489723293 -0.032380152046465945 -0.03041001748363228 -0.028205088467760854 -0.025804016316151628 -0.02325493849956737 -0.02060778508346111 -0.017919441594095024 -0.015245822714450668 -0.012646086080466456 -0.010174825474075187 -0.007885434647815862 -0.0058228988132435775 -0.004026633218377766 -0.002524771631373032 -0.0013377301551272583 -0.00047612111936505184 5.3962333969120584e-05 0.0002566822255346922 0.0001766543806933448 0.0 0.00021337645759885262 -0.000507605986417424 -0.0016372709501979396 -0.003072029772001459 -0.004787908054984798 -0.0067634263638655405 -0.008970374111930041 -0.011375046633602911 -0.013938618511231923 -0.016621753472046936 -0.019386424155204418 -0.022198461036496607 -0.025024190227362082 -0.027830458209977 -0.030580631097870573 -0.033237581168675534 -0.0357614409856614 -0.038114798913252354 -0.040259585827245856 -0.04216239667387058 -0.04378964575982522 -0.04511334588608352 -0.04610529824242508 -0.04674400105010608 -0.047008402971732456 -0.046886016434166615 -0.0463662379093111 -0.045449179860539785 -0.04413830752142829 -0.042449426367848514 -0.04040257075285289 -0.03803074398245212 -0.035371140376232596 -0.03247327178585953 -0.02938963172700825 -0.026182882985267636 -0.02291616099645845 -0.019659152517744537 -0.016478396336663946 -0.013442277593994818 -0.010611826624211012 -0.00804483894812965 -0.005787849133988771 -0.0038798801956485985 -0.0023464379315166145 -0.0012028734577072806 -0.00044804673395316605 -5.800897000638952e-05 4.0560541360086524e-05 0.0 -0.00021928213807174903 -0.001107210985776395 -0.0024408101260296753 -0.00412022854721944 -0.006120053168991082 -0.008425121314207034 -0.011008389943360473 -0.013830302927223892 -0.016845570915760784 -0.020007185380101957 -0.023271182465471763 -0.026594402854770265 -0.02993510005678193 -0.03324852546237374 -0.03649004554935658 -0.0396124601083843 -0.0425717716212274 -0.045323532574955055 -0.04782874556824641 -0.05004799193867774 -0.0519478443397995 -0.05349378661895672 -0.054658119396666593 -0.05541237384041859 -0.0557368643521423 -0.055612609092599366 -0.05503198201211482 -0.053989839007137594 -0.05249460783309832 -0.05055855176805221 -0.04820883287861046 -0.045477024498988945 -0.04240969632887501 -0.03905728269448937 -0.035483737171887714 -0.03175492795099511 -0.02794705236739238 -0.024134889168849826 -0.020398866317298057 -0.016813648859235444 -0.01345394186280936 -0.010384023014778199 -0.007662546682045647 -0.005333675270381677 -0.00343095004602714 -0.001969583081178479 -0.0009468485044709109 -0.000330681692091216 -5.155049622038979e-05 0.0 -0.0007058472174931554 -0.0016486992303615885 -0.003072767960976334 -0.004941533734995146 -0.007220659185557407 -0.009880784385317797 -0.012878028423457085 -0.016156975710173615 -0.019657412681110157 -0.023322052872828267 -0.027096078297397238 -0.0309284230913043 -0.034766944464443394 -0.03856109232728258 -0.04225846405805578 -0.04581054717975527 -0.04916848287881147 -0.05228922568394455 -0.055128845345044475 -0.05764934742331366 -0.0598105735756744 -0.06157887787842624 -0.0629184359209096 -0.06380198645776754 -0.06420154272913861 -0.06410060752587622 -0.06348394773736234 -0.062350559908317706 -0.06070245811754062 -0.05855790223714018 -0.05593936530753127 -0.05288651659453921 -0.04944348440748037 -0.04567102141465115 -0.041633197110739165 -0.03740827907317804 -0.033075125197865166 -0.02872251088211613 -0.02443564028438379 -0.020303854961602974 -0.016407830890569478 -0.012825820346845311 -0.009622211308165308 -0.006852505413876796 -0.004553593539807118 -0.0027469241226221264 -0.0014295539483976983 -0.0005742205224638416 -0.00012307108296388008 0.0 -0.0008784446665228327 -0.001865417893156442 -0.003407978922764671 -0.005524890514424896 -0.008161586652701251 -0.011252388184214368 -0.01472395319328994 -0.01849820457326154 -0.022501507139924017 -0.026666107796944095 -0.030931919803842443 -0.035240938724180756 -0.0395388853681694 -0.043770565139438146 -0.04788514435052732 -0.05183121605673599 -0.055563107428226746 -0.059033485936288425 -0.06220058124163704 -0.06501919996712414 -0.06745014137974292 -0.06945047698459508 -0.07098541363914178 -0.07201779179566312 -0.07252177367147679 -0.07247120610659287 -0.07185439295293432 -0.07066132603993873 -0.06889906633789387 -0.06657809730471191 -0.0637277795064186 -0.06038198028243721 -0.05659392585193389 -0.05242121776618462 -0.04793945260998888 -0.043226820711360955 -0.03837602847265664 -0.03347880484217207 -0.028635877279331003 -0.02394188078187456 -0.01949341299271394 -0.015375040421863512 -0.011665690457772805 -0.008426471734082692 -0.005705553609301309 -0.003528134367687133 -0.0018997532291175302 -0.0007994150571178844 -0.00018460711358018973 0.0 -0.00063416075240302 -0.0017653647996022995 -0.0035741511683896627 -0.006062550225359807 -0.009145814652828786 -0.012719458192145707 -0.01668106455038787 -0.020938669123130343 -0.025411735081444602 -0.030032559759186797 -0.03473945717454706 -0.039476689368740624 -0.04418831397276925 -0.04882266044047615 -0.05332683415314433 -0.05765315023360666 -0.06175137890389846 -0.06557634325296299 -0.06907830119551779 -0.0722129434716576 -0.07493080210243873 -0.07719001361767432 -0.07894470123993393 -0.08015988520630019 -0.08079848348579796 -0.08083765070403992 -0.0802544796840709 -0.07904333940426239 -0.07720064422149837 -0.0747426604813181 -0.07168956789843339 -0.06808298728334582 -0.06396944893785961 -0.059416862927366115 -0.05449751707683328 -0.049302814464869026 -0.043926003434877986 -0.038474709532459545 -0.03305376687792152 -0.027775386738572792 -0.022742727046479602 -0.018057908082967734 -0.01380718712909575 -0.010067237679786562 -0.006892787739734022 -0.00432160138075811 -0.0023656084815348467 -0.0010159848643496471 -0.00024093684716652896 0.0 -0.0002395702122958541 -0.0016336511217996067 -0.003843753507238644 -0.006777468719880291 -0.010320623845696642 -0.01434586672751016 -0.018741029610876727 -0.023413498010801073 -0.028289689848600166 -0.03330605897498099 -0.0384067403189799 -0.043535727120763965 -0.04864048159023513 -0.05366620201652984 -0.058562582065180335 -0.06327609689253139 -0.06775803643114583 -0.07195444584863786 -0.0758165304947835 -0.07928923206874924 -0.08232464921515674 -0.08486931559300352 -0.08688009802631834 -0.08830982418936864 -0.08912497226750525 -0.08928980760637466 -0.08878549300054502 -0.08759322556239257 -0.08571426660546652 -0.08315240975845523 -0.07993414800864901 -0.07609063574290019 -0.07167709552137029 -0.06675435244666875 -0.061406602737874016 -0.05572259741424649 -0.049811051674383704 -0.043781675658367346 -0.037757815421482294 -0.03185780962124066 -0.026204906309103253 -0.02090979558909513 -0.016078273204959807 -0.01179604776929168 -0.008134851609567404 -0.005140747363624565 -0.002839719549504263 -0.0012312921639781647 -0.00029564730685940427 0.0 -0.00010067856496252109 -0.0017851150794415734 -0.004391523512054355 -0.007719813478230562 -0.011633902997853943 -0.016009918300252352 -0.020744288621947236 -0.025757536483313536 -0.0309839366375795 -0.036366461623303224 -0.04184734564614341 -0.04737098366997814 -0.05287847120888266 -0.05831496108440187 -0.06362242843007035 -0.06874813349044695 -0.07363427270744292 -0.07822848569592647 -0.08247158442834655 -0.08631126475862352 -0.08968830255825107 -0.09255313811020636 -0.09485018241352056 -0.09653658678305534 -0.09756484166334642 -0.09790340036535997 -0.09751817437670947 -0.09639455520777115 -0.09451827550617892 -0.09189805166840057 -0.08854607068528601 -0.08450027823367595 -0.07980457636554393 -0.07452971459852879 -0.06875318742369836 -0.06257777160615567 -0.056111136707957934 -0.049481319649548175 -0.04281627479099758 -0.03625603865169373 -0.02993287935554138 -0.023980495505267072 -0.018515898252268202 -0.013646467963596509 -0.009455003768971758 -0.006005744222081138 -0.003334209467025024 -0.0014535373409634985 -0.00035079777068257626 0.0 -0.00039948578454746463 -0.0022799144624307266 -0.005131788300852353 -0.008709703714204304 -0.01286917662890995 -0.01750071456751091 -0.02251762001306123 -0.027847738069007148 -0.033428069788642004 -0.039194346274184125 -0.04508341855963717 -0.0510285226984306 -0.056967439716504566 -0.06283603496743223 -0.06857702171280033 -0.07412934205570283 -0.0794383867234278 -0.08444277869523836 -0.08908796116091519 -0.09331131223695768 -0.09705912809134029 -0.10026969437764305 -0.10289289596129234 -0.10487133429891465 -0.10616221122000873 -0.10671717134371697 -0.1065060544204246 -0.10549609709473838 -0.10367682061900814 -0.10103899941414687 -0.0975996724947162 -0.09338103468443736 -0.08843442491819103 -0.08281912189709759 -0.07662417549813465 -0.06994697903786165 -0.06291193338084633 -0.055648718697447024 -0.0483071507812118 -0.04103545464084245 -0.03399133540480833 -0.02732118821758868 -0.021168144494511387 -0.015653744630630934 -0.010884239151410317 -0.0069365459631320955 -0.003864218572252099 -0.0016893480003027654 -0.000409103424921857 0.0 -0.0009207150411957391 -0.002860154431734494 -0.005784912009714334 -0.009491842273928299 -0.013833811307703722 -0.01870814145087495 -0.02402880972899497 -0.0297183477725135 -0.035698341016774465 -0.04189191606809015 -0.04821991549886453 -0.054609746702922145 -0.06098972992340656 -0.06729783002536396 -0.07347066252027795 -0.07945296825571119 -0.08518335494670583 -0.09060733597061152 -0.09566141256760466 -0.10029018517515222 -0.10442836603741384 -0.10802101240750459 -0.11100329898633939 -0.11332339906198954 -0.11492070787898999 -0.11575101801489768 -0.11576401468616251 -0.11493009585453182 -0.11321773926963058 -0.11062095306181402 -0.10713680102314614 -0.10279229781727564 -0.09762217613144407 -0.09169401498008685 -0.08508608552525734 -0.07790946337877175 -0.07028559761721535 -0.06236433634348847 -0.054301050665153984 -0.0462700978582337 -0.038441979291675026 -0.03099267789777217 -0.024082206110008768 -0.017861143179479698 -0.012452609832705085 -0.00795775621590795 -0.004443231172482714 -0.001946960089315376 -0.0004722072909041417 0.0 -0.0012373509400998202 -0.003176705047598921 -0.006129310406112759 -0.00996617852853258 -0.014537565639489079 -0.019723468025382735 -0.02542031517599962 -0.03152680101517369 -0.03794585368238914 -0.04458175225007085 -0.05134920738469738 -0.05816820674574905 -0.06497219829151744 -0.0716965318754041 -0.07828676487477361 -0.08468334699998381 -0.09083378232635361 -0.09667581351749499 -0.10215445367294072 -0.10720319399574003 -0.11176469057731846 -0.1157693923021473 -0.11915917139093073 -0.12186399528852083 -0.12382820261875888 -0.12498624686277754 -0.1252910945159585 -0.12468986979106969 -0.12315337768121128 -0.12065210522924427 -0.11718569076917977 -0.11275957658995239 -0.10741324967956725 -0.10119749857287191 -0.09420005983924884 -0.08652296182483477 -0.07830413692630148 -0.06969421204217391 -0.060873021839014725 -0.052025663007793765 -0.04335373663734274 -0.035051483966588116 -0.027312801553143962 -0.020309437154708423 -0.014195806295404534 -0.009091833432139387 -0.00508763932837698 -0.002233020342854983 -0.0005427829259066911 0.0 -0.00110336661252467 -0.0031118514579676015 -0.00620592321400397 -0.010283409520708772 -0.015183800725278352 -0.020759083715994414 -0.02687515253565054 -0.0334097895608381 -0.04024826957656092 -0.047291632015521536 -0.05445151027695157 -0.0616571929704539 -0.06884336580890248 -0.07595698903134786 -0.08294111395686649 -0.08974602771425431 -0.09631181358037467 -0.10258515926249158 -0.10850007559229921 -0.11399888042155165 -0.11900993433964906 -0.12347176758864317 -0.12730830935312268 -0.1304559239898881 -0.13283738517347876 -0.134391472558045 -0.13504677801754736 -0.13475288752688422 -0.1334546471852669 -0.1311237639199186 -0.12773411347905653 -0.12329271762489807 -0.11781632396829904 -0.11136042813027903 -0.1039966352169372 -0.09583807756298171 -0.08701658824709524 -0.07770291837374457 -0.06808282077324111 -0.05837109157367221 -0.04878648639612991 -0.03955990616285625 -0.03090955726015521 -0.02304518557690415 -0.016146303360719726 -0.01036526797763779 -0.005811613469392205 -0.0025560528752314408 -0.0006224049260062935 0.0 -0.0006907682946837052 -0.0028917010200073395 -0.006283263018283152 -0.010705228970891498 -0.015984208181825922 -0.021948521786295177 -0.02844706373600255 -0.035345721698858544 -0.04253239097961966 -0.0499106766803018 -0.057405391875356634 -0.06494974744751537 -0.0724908842089687 -0.0799733050541487 -0.08734911065325067 -0.09456034636181744 -0.10155548437996678 -0.10826996333825259 -0.11464727799230641 -0.12061607748270589 -0.12611451710078625 -0.13106418384321578 -0.13539754761908496 -0.13903018686772634 -0.14189121088219256 -0.14389515001661551 -0.14497439364972858 -0.14505150995331226 -0.14407249787124787 -0.14198042199358452 -0.13874861338955838 -0.13435625656663092 -0.1288203760778128 -0.1221731240871777 -0.11449091044425849 -0.10587235820879902 -0.09646267314244397 -0.08643080808464329 -0.07598730907361928 -0.06535953923419034 -0.054802220708331295 -0.044570975760100356 -0.034926679409655034 -0.026109693143938188 -0.018341081602137897 -0.011801388273630134 -0.006632229173864863 -0.002922863577513452 -0.0007138242369871661 0.0 -0.0004328553324923143 -0.0028786286500770914 -0.006606896529938186 -0.011362192517248989 -0.016956912663159046 -0.02321939558570142 -0.02999775680408127 -0.037167339934730856 -0.04462316777044222 -0.05228342479748647 -0.060076594277495725 -0.06794619357220684 -0.07583463164114643 -0.08369285784550662 -0.09146297135936737 -0.09909424031070767 -0.10652367988610682 -0.11369695179459505 -0.12054503550172169 -0.12700849743292827 -0.13301028851839564 -0.1384832736230939 -0.14334079553284795 -0.147507578174515 -0.1508897023660211 -0.15340795139824237 -0.1549680409889911 -0.15549507663866252 -0.15490517062666226 -0.15314030082322586 -0.1501424286202934 -0.14588784201287439 -0.14036393509266568 -0.1336016007817846 -0.1256538913659394 -0.11662458202262076 -0.10664706424797979 -0.09590681148859476 -0.08461843003392083 -0.07304005110488505 -0.06144724917461104 -0.05013900771423839 -0.03940950492065317 -0.029548006013045205 -0.020812320120131334 -0.01342711023089169 -0.00756398984222262 -0.003342257660731836 -0.0008186518951159038 0.0 -0.0006172163825203107 -0.003229183339674921 -0.007167900526479838 -0.012124356581655914 -0.017905062122750448 -0.024349272239158802 -0.03132071434430547 -0.038702611604141665 -0.04640122543441394 -0.05433397003183072 -0.06243419418935153 -0.07063645482648537 -0.0788859786084845 -0.08712193434316974 -0.09529272364629603 -0.10333663991065509 -0.11120213340123261 -0.11882418876828274 -0.12614817604064138 -0.13310175102749913 -0.13962216859968543 -0.14562536731910541 -0.1510370596275503 -0.15576089848510447 -0.15971246406605988 -0.16278737756171993 -0.16489661371007672 -0.16593582138050295 -0.16582131907624745 -0.16446221502866662 -0.16179641919370336 -0.157766226161455 -0.1523532290777005 -0.1455570992411027 -0.13742787796886352 -0.12804658359054477 -0.11755259047615946 -0.10612354730875036 -0.09399499787304819 -0.08143683989333639 -0.06876304094254487 -0.05630348319381552 -0.044404268791833054 -0.03339730971409552 -0.023595419971784756 -0.015265421904256782 -0.008624188125518618 -0.0038212449093025557 -0.0009397465937288202 0.0 -0.0011075228388631223 -0.003741138356563971 -0.007703747875318327 -0.01272106636550237 -0.01859531063455943 -0.025174765800463916 -0.03232571762853816 -0.03993405329746416 -0.047896905931712766 -0.05612888272508992 -0.06454966409091986 -0.07309351968735132 -0.08169341914314375 -0.0902951361431769 -0.09883782956889131 -0.10727309398571326 -0.11554111063172068 -0.12359374727816431 -0.13136587889708562 -0.13880227043869456 -0.14582549098346095 -0.15236695913396683 -0.1583335173102554 -0.1636418691983503 -0.16818469210236495 -0.17186657706925448 -0.17457090721184942 -0.17619658816608716 -0.1766277073677788 -0.17577058506804338 -0.17352738005931037 -0.16983265210565174 -0.16463128810169048 -0.15791361048250577 -0.14969694132701095 -0.14005745925245638 -0.12911312430824445 -0.11704925688583412 -0.10409919473496339 -0.0905599722086192 -0.076767250406