# vtk DataFile Version 3.0
vtk output
ASCII
DATASET STRUCTURED_GRID
DIMENSIONS 51 51 1
POINTS 2601 float
0.0 0.0 0.0
0.02 0.0 0.0
0.04 0.0 0.0
0.06 0.0 0.0
0.08 0.0 0.0
0.1 0.0 0.0
0.12 0.0 0.0
0.14 0.0 0.0
0.16 0.0 0.0
0.18 0.0 0.0
0.2 0.0 0.0
0.22 0.0 0.0
0.24 0.0 0.0
0.26 0.0 0.0
0.28 0.0 0.0
0.3 0.0 0.0
0.32 0.0 0.0
0.34 0.0 0.0
0.36 0.0 0.0
0.38 0.0 0.0
0.4 0.0 0.0
0.42 0.0 0.0
0.44 0.0 0.0
0.46 0.0 0.0
0.48 0.0 0.0
0.5 0.0 0.0
0.52 0.0 0.0
0.54 0.0 0.0
0.56 0.0 0.0
0.58 0.0 0.0
0.6 0.0 0.0
0.62 0.0 0.0
0.64 0.0 0.0
0.66 0.0 0.0
0.68 0.0 0.0
0.7000000000000001 0.0 0.0
0.72 0.0 0.0
0.74 0.0 0.0
0.76 0.0 0.0
0.78 0.0 0.0
0.8 0.0 0.0
0.8200000000000001 0.0 0.0
0.84 0.0 0.0
0.86 0.0 0.0
0.88 0.0 0.0
0.9 0.0 0.0
0.92 0.0 0.0
0.9400000000000001 0.0 0.0
0.96 0.0 0.0
0.98 0.0 0.0
1.0 0.0 0.0
0.0 0.02 0.0
0.02 0.02 0.0
0.04 0.02 0.0
0.06 0.02 0.0
0.08 0.02 0.0
0.1 0.02 0.0
0.12 0.02 0.0
0.14 0.02 0.0
0.16 0.02 0.0
0.18 0.02 0.0
0.2 0.02 0.0
0.22 0.02 0.0
0.24 0.02 0.0
0.26 0.02 0.0
0.28 0.02 0.0
0.3 0.02 0.0
0.32 0.02 0.0
0.34 0.02 0.0
0.36 0.02 0.0
0.38 0.02 0.0
0.4 0.02 0.0
0.42 0.02 0.0
0.44 0.02 0.0
0.46 0.02 0.0
0.48 0.02 0.0
0.5 0.02 0.0
0.52 0.02 0.0
0.54 0.02 0.0
0.56 0.02 0.0
0.58 0.02 0.0
0.6 0.02 0.0
0.62 0.02 0.0
0.64 0.02 0.0
0.66 0.02 0.0
0.68 0.02 0.0
0.7000000000000001 0.02 0.0
0.72 0.02 0.0
0.74 0.02 0.0
0.76 0.02 0.0
0.78 0.02 0.0
0.8 0.02 0.0
0.8200000000000001 0.02 0.0
0.84 0.02 0.0
0.86 0.02 0.0
0.88 0.02 0.0
0.9 0.02 0.0
0.92 0.02 0.0
0.9400000000000001 0.02 0.0
0.96 0.02 0.0
0.98 0.02 0.0
1.0 0.02 0.0
0.0 0.04 0.0
0.02 0.04 0.0
0.04 0.04 0.0
0.06 0.04 0.0
0.08 0.04 0.0
0.1 0.04 0.0
0.12 0.04 0.0
0.14 0.04 0.0
0.16 0.04 0.0
0.18 0.04 0.0
0.2 0.04 0.0
0.22 0.04 0.0
0.24 0.04 0.0
0.26 0.04 0.0
0.28 0.04 0.0
0.3 0.04 0.0
0.32 0.04 0.0
0.34 0.04 0.0
0.36 0.04 0.0
0.38 0.04 0.0
0.4 0.04 0.0
0.42 0.04 0.0
0.44 0.04 0.0
0.46 0.04 0.0
0.48 0.04 0.0
0.5 0.04 0.0
0.52 0.04 0.0
0.54 0.04 0.0
0.56 0.04 0.0
0.58 0.04 0.0
0.6 0.04 0.0
0.62 0.04 0.0
0.64 0.04 0.0
0.66 0.04 0.0
0.68 0.04 0.0
0.7000000000000001 0.04 0.0
0.72 0.04 0.0
0.74 0.04 0.0
0.76 0.04 0.0
0.78 0.04 0.0
0.8 0.04 0.0
0.8200000000000001 0.04 0.0
0.84 0.04 0.0
0.86 0.04 0.0
0.88 0.04 0.0
0.9 0.04 0.0
0.92 0.04 0.0
0.9400000000000001 0.04 0.0
0.96 0.04 0.0
0.98 0.04 0.0
1.0 0.04 0.0
0.0 0.06 0.0
0.02 0.06 0.0
0.04 0.06 0.0
0.06 0.06 0.0
0.08 0.06 0.0
0.1 0.06 0.0
0.12 0.06 0.0
0.14 0.06 0.0
0.16 0.06 0.0
0.18 0.06 0.0
0.2 0.06 0.0
0.22 0.06 0.0
0.24 0.06 0.0
0.26 0.06 0.0
0.28 0.06 0.0
0.3 0.06 0.0
0.32 0.06 0.0
0.34 0.06 0.0
0.36 0.06 0.0
0.38 0.06 0.0
0.4 0.06 0.0
0.42 0.06 0.0
0.44 0.06 0.0
0.46 0.06 0.0
0.48 0.06 0.0
0.5 0.06 0.0
0.52 0.06 0.0
0.54 0.06 0.0
0.56 0.06 0.0
0.58 0.06 0.0
0.6 0.06 0.0
0.62 0.06 0.0
0.64 0.06 0.0
0.66 0.06 0.0
0.68 0.06 0.0
0.7000000000000001 0.06 0.0
0.72 0.06 0.0
0.74 0.06 0.0
0.76 0.06 0.0
0.78 0.06 0.0
0.8 0.06 0.0
0.8200000000000001 0.06 0.0
0.84 0.06 0.0
0.86 0.06 0.0
0.88 0.06 0.0
0.9 0.06 0.0
0.92 0.06 0.0
0.9400000000000001 0.06 0.0
0.96 0.06 0.0
0.98 0.06 0.0
1.0 0.06 0.0
0.0 0.08 0.0
0.02 0.08 0.0
0.04 0.08 0.0
0.06 0.08 0.0
0.08 0.08 0.0
0.1 0.08 0.0
0.12 0.08 0.0
0.14 0.08 0.0
0.16 0.08 0.0
0.18 0.08 0.0
0.2 0.08 0.0
0.22 0.08 0.0
0.24 0.08 0.0
0.26 0.08 0.0
0.28 0.08 0.0
0.3 0.08 0.0
0.32 0.08 0.0
0.34 0.08 0.0
0.36 0.08 0.0
0.38 0.08 0.0
0.4 0.08 0.0
0.42 0.08 0.0
0.44 0.08 0.0
0.46 0.08 0.0
0.48 0.08 0.0
0.5 0.08 0.0
0.52 0.08 0.0
0.54 0.08 0.0
0.56 0.08 0.0
0.58 0.08 0.0
0.6 0.08 0.0
0.62 0.08 0.0
0.64 0.08 0.0
0.66 0.08 0.0
0.68 0.08 0.0
0.7000000000000001 0.08 0.0
0.72 0.08 0.0
0.74 0.08 0.0
0.76 0.08 0.0
0.78 0.08 0.0
0.8 0.08 0.0
0.8200000000000001 0.08 0.0
0.84 0.08 0.0
0.86 0.08 0.0
0.88 0.08 0.0
0.9 0.08 0.0
0.92 0.08 0.0
0.9400000000000001 0.08 0.0
0.96 0.08 0.0
0.98 0.08 0.0
1.0 0.08 0.0
0.0 0.1 0.0
0.02 0.1 0.0
0.04 0.1 0.0
0.06 0.1 0.0
0.08 0.1 0.0
0.1 0.1 0.0
0.12 0.1 0.0
0.14 0.1 0.0
0.16 0.1 0.0
0.18 0.1 0.0
0.2 0.1 0.0
0.22 0.1 0.0
0.24 0.1 0.0
0.26 0.1 0.0
0.28 0.1 0.0
0.3 0.1 0.0
0.32 0.1 0.0
0.34 0.1 0.0
0.36 0.1 0.0
0.38 0.1 0.0
0.4 0.1 0.0
0.42 0.1 0.0
0.44 0.1 0.0
0.46 0.1 0.0
0.48 0.1 0.0
0.5 0.1 0.0
0.52 0.1 0.0
0.54 0.1 0.0
0.56 0.1 0.0
0.58 0.1 0.0
0.6 0.1 0.0
0.62 0.1 0.0
0.64 0.1 0.0
0.66 0.1 0.0
0.68 0.1 0.0
0.7000000000000001 0.1 0.0
0.72 0.1 0.0
0.74 0.1 0.0
0.76 0.1 0.0
0.78 0.1 0.0
0.8 0.1 0.0
0.8200000000000001 0.1 0.0
0.84 0.1 0.0
0.86 0.1 0.0
0.88 0.1 0.0
0.9 0.1 0.0
0.92 0.1 0.0
0.9400000000000001 0.1 0.0
0.96 0.1 0.0
0.98 0.1 0.0
1.0 0.1 0.0
0.0 0.12 0.0
0.02 0.12 0.0
0.04 0.12 0.0
0.06 0.12 0.0
0.08 0.12 0.0
0.1 0.12 0.0
0.12 0.12 0.0
0.14 0.12 0.0
0.16 0.12 0.0
0.18 0.12 0.0
0.2 0.12 0.0
0.22 0.12 0.0
0.24 0.12 0.0
0.26 0.12 0.0
0.28 0.12 0.0
0.3 0.12 0.0
0.32 0.12 0.0
0.34 0.12 0.0
0.36 0.12 0.0
0.38 0.12 0.0
0.4 0.12 0.0
0.42 0.12 0.0
0.44 0.12 0.0
0.46 0.12 0.0
0.48 0.12 0.0
0.5 0.12 0.0
0.52 0.12 0.0
0.54 0.12 0.0
0.56 0.12 0.0
0.58 0.12 0.0
0.6 0.12 0.0
0.62 0.12 0.0
0.64 0.12 0.0
0.66 0.12 0.0
0.68 0.12 0.0
0.7000000000000001 0.12 0.0
0.72 0.12 0.0
0.74 0.12 0.0
0.76 0.12 0.0
0.78 0.12 0.0
0.8 0.12 0.0
0.8200000000000001 0.12 0.0
0.84 0.12 0.0
0.86 0.12 0.0
0.88 0.12 0.0
0.9 0.12 0.0
0.92 0.12 0.0
0.9400000000000001 0.12 0.0
0.96 0.12 0.0
0.98 0.12 0.0
1.0 0.12 0.0
0.0 0.14 0.0
0.02 0.14 0.0
0.04 0.14 0.0
0.06 0.14 0.0
0.08 0.14 0.0
0.1 0.14 0.0
0.12 0.14 0.0
0.14 0.14 0.0
0.16 0.14 0.0
0.18 0.14 0.0
0.2 0.14 0.0
0.22 0.14 0.0
0.24 0.14 0.0
0.26 0.14 0.0
0.28 0.14 0.0
0.3 0.14 0.0
0.32 0.14 0.0
0.34 0.14 0.0
0.36 0.14 0.0
0.38 0.14 0.0
0.4 0.14 0.0
0.42 0.14 0.0
0.44 0.14 0.0
0.46 0.14 0.0
0.48 0.14 0.0
0.5 0.14 0.0
0.52 0.14 0.0
0.54 0.14 0.0
0.56 0.14 0.0
0.58 0.14 0.0
0.6 0.14 0.0
0.62 0.14 0.0
0.64 0.14 0.0
0.66 0.14 0.0
0.68 0.14 0.0
0.7000000000000001 0.14 0.0
0.72 0.14 0.0
0.74 0.14 0.0
0.76 0.14 0.0
0.78 0.14 0.0
0.8 0.14 0.0
0.8200000000000001 0.14 0.0
0.84 0.14 0.0
0.86 0.14 0.0
0.88 0.14 0.0
0.9 0.14 0.0
0.92 0.14 0.0
0.9400000000000001 0.14 0.0
0.96 0.14 0.0
0.98 0.14 0.0
1.0 0.14 0.0
0.0 0.16 0.0
0.02 0.16 0.0
0.04 0.16 0.0
0.06 0.16 0.0
0.08 0.16 0.0
0.1 0.16 0.0
0.12 0.16 0.0
0.14 0.16 0.0
0.16 0.16 0.0
0.18 0.16 0.0
0.2 0.16 0.0
0.22 0.16 0.0
0.24 0.16 0.0
0.26 0.16 0.0
0.28 0.16 0.0
0.3 0.16 0.0
0.32 0.16 0.0
0.34 0.16 0.0
0.36 0.16 0.0
0.38 0.16 0.0
0.4 0.16 0.0
0.42 0.16 0.0
0.44 0.16 0.0
0.46 0.16 0.0
0.48 0.16 0.0
0.5 0.16 0.0
0.52 0.16 0.0
0.54 0.16 0.0
0.56 0.16 0.0
0.58 0.16 0.0
0.6 0.16 0.0
0.62 0.16 0.0
0.64 0.16 0.0
0.66 0.16 0.0
0.68 0.16 0.0
0.7000000000000001 0.16 0.0
0.72 0.16 0.0
0.74 0.16 0.0
0.76 0.16 0.0
0.78 0.16 0.0
0.8 0.16 0.0
0.8200000000000001 0.16 0.0
0.84 0.16 0.0
0.86 0.16 0.0
0.88 0.16 0.0
0.9 0.16 0.0
0.92 0.16 0.0
0.9400000000000001 0.16 0.0
0.96 0.16 0.0
0.98 0.16 0.0
1.0 0.16 0.0
0.0 0.18 0.0
0.02 0.18 0.0
0.04 0.18 0.0
0.06 0.18 0.0
0.08 0.18 0.0
0.1 0.18 0.0
0.12 0.18 0.0
0.14 0.18 0.0
0.16 0.18 0.0
0.18 0.18 0.0
0.2 0.18 0.0
0.22 0.18 0.0
0.24 0.18 0.0
0.26 0.18 0.0
0.28 0.18 0.0
0.3 0.18 0.0
0.32 0.18 0.0
0.34 0.18 0.0
0.36 0.18 0.0
0.38 0.18 0.0
0.4 0.18 0.0
0.42 0.18 0.0
0.44 0.18 0.0
0.46 0.18 0.0
0.48 0.18 0.0
0.5 0.18 0.0
0.52 0.18 0.0
0.54 0.18 0.0
0.56 0.18 0.0
0.58 0.18 0.0
0.6 0.18 0.0
0.62 0.18 0.0
0.64 0.18 0.0
0.66 0.18 0.0
0.68 0.18 0.0
0.7000000000000001 0.18 0.0
0.72 0.18 0.0
0.74 0.18 0.0
0.76 0.18 0.0
0.78 0.18 0.0
0.8 0.18 0.0
0.8200000000000001 0.18 0.0
0.84 0.18 0.0
0.86 0.18 0.0
0.88 0.18 0.0
0.9 0.18 0.0
0.92 0.18 0.0
0.9400000000000001 0.18 0.0
0.96 0.18 0.0
0.98 0.18 0.0
1.0 0.18 0.0
0.0 0.2 0.0
0.02 0.2 0.0
0.04 0.2 0.0
0.06 0.2 0.0
0.08 0.2 0.0
0.1 0.2 0.0
0.12 0.2 0.0
0.14 0.2 0.0
0.16 0.2 0.0
0.18 0.2 0.0
0.2 0.2 0.0
0.22 0.2 0.0
0.24 0.2 0.0
0.26 0.2 0.0
0.28 0.2 0.0
0.3 0.2 0.0
0.32 0.2 0.0
0.34 0.2 0.0
0.36 0.2 0.0
0.38 0.2 0.0
0.4 0.2 0.0
0.42 0.2 0.0
0.44 0.2 0.0
0.46 0.2 0.0
0.48 0.2 0.0
0.5 0.2 0.0
0.52 0.2 0.0
0.54 0.2 0.0
0.56 0.2 0.0
0.58 0.2 0.0
0.6 0.2 0.0
0.62 0.2 0.0
0.64 0.2 0.0
0.66 0.2 0.0
0.68 0.2 0.0
0.7000000000000001 0.2 0.0
0.72 0.2 0.0
0.74 0.2 0.0
0.76 0.2 0.0
0.78 0.2 0.0
0.8 0.2 0.0
0.8200000000000001 0.2 0.0
0.84 0.2 0.0
0.86 0.2 0.0
0.88 0.2 0.0
0.9 0.2 0.0
0.92 0.2 0.0
0.9400000000000001 0.2 0.0
0.96 0.2 0.0
0.98 0.2 0.0
1.0 0.2 0.0
0.0 0.22 0.0
0.02 0.22 0.0
0.04 0.22 0.0
0.06 0.22 0.0
0.08 0.22 0.0
0.1 0.22 0.0
0.12 0.22 0.0
0.14 0.22 0.0
0.16 0.22 0.0
0.18 0.22 0.0
0.2 0.22 0.0
0.22 0.22 0.0
0.24 0.22 0.0
0.26 0.22 0.0
0.28 0.22 0.0
0.3 0.22 0.0
0.32 0.22 0.0
0.34 0.22 0.0
0.36 0.22 0.0
0.38 0.22 0.0
0.4 0.22 0.0
0.42 0.22 0.0
0.44 0.22 0.0
0.46 0.22 0.0
0.48 0.22 0.0
0.5 0.22 0.0
0.52 0.22 0.0
0.54 0.22 0.0
0.56 0.22 0.0
0.58 0.22 0.0
0.6 0.22 0.0
0.62 0.22 0.0
0.64 0.22 0.0
0.66 0.22 0.0
0.68 0.22 0.0
0.7000000000000001 0.22 0.0
0.72 0.22 0.0
0.74 0.22 0.0
0.76 0.22 0.0
0.78 0.22 0.0
0.8 0.22 0.0
0.8200000000000001 0.22 0.0
0.84 0.22 0.0
0.86 0.22 0.0
0.88 0.22 0.0
0.9 0.22 0.0
0.92 0.22 0.0
0.9400000000000001 0.22 0.0
0.96 0.22 0.0
0.98 0.22 0.0
1.0 0.22 0.0
0.0 0.24 0.0
0.02 0.24 0.0
0.04 0.24 0.0
0.06 0.24 0.0
0.08 0.24 0.0
0.1 0.24 0.0
0.12 0.24 0.0
0.14 0.24 0.0
0.16 0.24 0.0
0.18 0.24 0.0
0.2 0.24 0.0
0.22 0.24 0.0
0.24 0.24 0.0
0.26 0.24 0.0
0.28 0.24 0.0
0.3 0.24 0.0
0.32 0.24 0.0
0.34 0.24 0.0
0.36 0.24 0.0
0.38 0.24 0.0
0.4 0.24 0.0
0.42 0.24 0.0
0.44 0.24 0.0
0.46 0.24 0.0
0.48 0.24 0.0
0.5 0.24 0.0
0.52 0.24 0.0
0.54 0.24 0.0
0.56 0.24 0.0
0.58 0.24 0.0
0.6 0.24 0.0
0.62 0.24 0.0
0.64 0.24 0.0
0.66 0.24 0.0
0.68 0.24 0.0
0.7000000000000001 0.24 0.0
0.72 0.24 0.0
0.74 0.24 0.0
0.76 0.24 0.0
0.78 0.24 0.0
0.8 0.24 0.0
0.8200000000000001 0.24 0.0
0.84 0.24 0.0
0.86 0.24 0.0
0.88 0.24 0.0
0.9 0.24 0.0
0.92 0.24 0.0
0.9400000000000001 0.24 0.0
0.96 0.24 0.0
0.98 0.24 0.0
1.0 0.24 0.0
0.0 0.26 0.0
0.02 0.26 0.0
0.04 0.26 0.0
0.06 0.26 0.0
0.08 0.26 0.0
0.1 0.26 0.0
0.12 0.26 0.0
0.14 0.26 0.0
0.16 0.26 0.0
0.18 0.26 0.0
0.2 0.26 0.0
0.22 0.26 0.0
0.24 0.26 0.0
0.26 0.26 0.0
0.28 0.26 0.0
0.3 0.26 0.0
0.32 0.26 0.0
0.34 0.26 0.0
0.36 0.26 0.0
0.38 0.26 0.0
0.4 0.26 0.0
0.42 0.26 0.0
0.44 0.26 0.0
0.46 0.26 0.0
0.48 0.26 0.0
[...]
CELL_DATA 2500
SCALARS u float 1
LOOKUP_TABLE u_cell_table
0.00013443135119428206 0.0004539199882801152 0.0005641955278338086 0.00041302283672419446 6.719907737042972e-05 -0.0003870631462071303 -0.0008791040422102804 -0.0013636544587062966 -0.0018213260755258688 -0.0022528505028210017 -0.0026697348607807054 -0.003085727951527371 -0.003510698342294064 -0.003948230646444176 -0.004395465609160831 -0.0048449182820081765 -0.005286293983313775 -0.005708542726242477 -0.00610084603065838 -0.006453532615826545 -0.00675802682805429 -0.007007077314151974 -0.007194366744160069 -0.0073146960805373674 -0.007363719385670469 -0.00733831350934245 -0.0072364791890659275 -0.0070578020335584106 -0.0068033860533589716 -0.006476279825360788 -0.006081355437751119 -0.0056256211968175995 -0.005117962233594327 -0.004569240686587952 -0.0039918256939888135 -0.0033994614823447877 -0.0028066368684792745 -0.002228300254973343 -0.0016791394186257372 -0.0011731677284239806 -0.000722895093311666 -0.00033869516200783084 -2.7605691032994625e-05 0.00020828397014772325 0.0003754431442725981 0.000496687038141033 0.0006296536202158966 0.0009069123797629718 0.0016015027745315963 0.0 0.0002581462615168194 0.0002978431305923591 0.00013198000929024736 -0.0002962126482451052 -0.0009726047379824657 -0.0018455750121399296 -0.0028615445529022684 -0.003977391210167365 -0.005163586663136011 -0.0064008952291360385 -0.0076767277348670105 -0.008979815491749492 -0.01029828392415043 -0.01161722364270703 -0.012919806720127693 -0.014186727900950514 -0.0153983329032558 -0.016534088944568186 -0.017574477387664825 -0.018500010897912457 -0.019292867937323842 -0.019935748386707138 -0.020413552769608278 -0.02071236916662996 -0.02082133167371021 -0.020731784979016652 -0.020439212838256927 -0.01994243150290373 -0.019245381451386354 -0.01835619244542378 -0.017288677634797307 -0.016061149710817423 -0.014697464498587314 -0.013225467549929974 -0.011677480352891234 -0.01008836935810824 -0.008495520043399454 -0.0069366444972111686 -0.005449338985516153 -0.004068717591798766 -0.002826569461474434 -0.001748772500131864 -0.0008538319884999425 -0.00014965471550122786 0.0003689788088215401 0.0007232445153204911 0.0009454293991828222 0.0010466592957842195 0.0009007080999348703 0.0 0.0001356846415531253 -0.0001556030756079104 -0.0006883535875230596 -0.0014482289554292374 -0.0024481419064374716 -0.0036862796892796197 -0.005147131092943043 -0.006807338445598183 -0.008636505581373865 -0.010599766157631803 -0.01265874106383269 -0.014775210775004384 -0.01691157955594551 -0.019033460292164472 -0.02110831094643692 -0.023106738134875973 -0.025000114085123978 -0.02676173514515516 -0.028364576443820653 -0.029783048601852824 -0.030991305803347996 -0.03196561488943671 -0.032683103844067106 -0.03312448193650705 -0.033273012547298385 -0.03311731530246794 -0.032650355792155306 -0.03187208266305029 -0.03078825256911967 -0.029412696498756323 -0.027765829143650916 -0.025876357257513853 -0.023779330581433916 -0.02151713878786091 -0.019137039463150173 -0.016691414248248777 -0.014234842739730134 -0.011823699455486968 -0.009512913408616704 -0.007355032672723428 -0.005396840007084397 -0.0036780432483069377 -0.0022279894620007034 -0.0010644612633684278 -0.0001918965820729353 0.00039591815343748785 0.0007076356802290653 0.0007362758010912569 0.00045828415753872224 0.0 -0.00023779388778796896 -0.0007087062352864203 -0.001474453461083214 -0.002524864364472198 -0.0038816736745568695 -0.005558243577872275 -0.007544307783019941 -0.00980749481698067 -0.012300820411893473 -0.01496785279074212 -0.01775095650068631 -0.02059422969626348 -0.02344813143639078 -0.026267726801040718 -0.029014043652324076 -0.031650098083294526 -0.034141910095076264 -0.036454873039289876 -0.03855592717878237 -0.04041094456994671 -0.04198794908181561 -0.04325516451221515 -0.04418474101334184 -0.04475107525733047 -0.04493465905982759 -0.044720446530211 -0.044101567000193735 -0.04307757252727636 -0.04165778996724307 -0.039859288187319 -0.03770964718314665 -0.03524447941069369 -0.032509410239364725 -0.02955703522176717 -0.026447998770898824 -0.02324738677571191 -0.020024917134628895 -0.016850884499927422 -0.01379559321882573 -0.010925092691445874 -0.008300123677842542 -0.005972049099626094 -0.0039818425512397285 -0.0023571073367070314 -0.0011125661175071992 -0.00025031127271515793 0.00023706762671147713 0.0003706185367916795 0.00021795141105383022 0.0 -0.0005342129897598347 -0.0011213237257608052 -0.0020922311546969345 -0.003476428560254968 -0.00527907561894644 -0.007490278847271923 -0.01007378136900043 -0.012973313927522535 -0.01612050515995859 -0.019445615798427737 -0.022881497890115395 -0.02636896076328478 -0.029854492238588354 -0.03329155137813854 -0.036635672647942416 -0.03984560576595394 -0.04287898368240059 -0.04569497606304146 -0.04825112035850065 -0.05050717251240294 -0.05242258944089879 -0.05396091288687228 -0.05508749187051978 -0.05577402665447955 -0.05599637635801279 -0.05573905564532407 -0.054993014960357925 -0.05375987104045943 -0.05204949982921774 -0.04988374899080194 -0.04729365539904941 -0.04432238740554182 -0.04102191875126681 -0.03745500642547651 -0.03369123790172265 -0.029807963176316343 -0.025885758370670125 -0.022008376261870046 -0.01825783160344043 -0.014713620138551965 -0.011447828069264528 -0.008524086112276955 -0.005993347964705105 -0.0038933247242832134 -0.0022457303910106297 -0.0010563040557224482 -0.00031096109989233985 3.3258872738878954e-05 7.41698765617988e-05 0.0 -0.000543256290407944 -0.0013103675744342784 -0.0025953653381234477 -0.004423391481953334 -0.0067624219784104 -0.009559343686821084 -0.01274764362363492 -0.01625178383744446 -0.01999687965097463 -0.02391153634798438 -0.027932532494168355 -0.03200143668042253 -0.036065945734188185 -0.04007456076927083 -0.04397849679637368 -0.04772715254475086 -0.05127162893036452 -0.05456110594976762 -0.057547364350027504 -0.0601815342129547 -0.06241904664550264 -0.06421653094969901 -0.06553697765206319 -0.06634678503861428 -0.0666210122143942 -0.06634053527656453 -0.06549718348938854 -0.06409085173758156 -0.06213423778480903 -0.05964970314078111 -0.056673317312665644 -0.05325126204771147 -0.04944292098527384 -0.045316670493585426 -0.04095183142691231 -0.0364337910275534 -0.0318547704395786 -0.027308389452957542 -0.022889405778934183 -0.018688052938208438 -0.014789134139444986 -0.011266672947900782 -0.008182918826753482 -0.005583896726914854 -0.003498579686532116 -0.0019347486748359207 -0.0008757739475124344 -0.00027152093926435675 -2.7354341609684763e-05 0.0 -0.00038238647081786405 -0.0014331637525765118 -0.0031445589436353786 -0.00547898396264938 -0.008364956095816174 -0.01171923039106595 -0.015458731964756884 -0.019506822631601903 -0.023792153802988006 -0.028250960684233016 -0.032822142939886396 -0.03744853559067285 -0.04207170307045115 -0.04663498724504389 -0.0510793380982754 -0.05534781754487594 -0.05938171616526677 -0.0631255663205262 -0.06652313482830989 -0.06952268217068733 -0.07207299124950077 -0.074128931745036 -0.07564773430065046 -0.07659482777714828 -0.07694037815578146 -0.07666519075616121 -0.07575736528091333 -0.07421795643600154 -0.07205752823245125 -0.06930125143431126 -0.06598513336876459 -0.06216024595226747 -0.057888421260256465 -0.053245339278881705 -0.04831553300751629 -0.04319416071720182 -0.037981300994650094 -0.03278242256873924 -0.027702172741195793 -0.022843807338395375 -0.018302921044138772 -0.014166321743955167 -0.010506292284150398 -0.007379373300150567 -0.00482139371823378 -0.0028457653737740305 -0.0014381570662031665 -0.0005530189739856906 -0.000109646854820245 0.0 -0.00031110778977831623 -0.0016778430841346379 -0.003820230851213452 -0.006623055465331717 -0.009991428281500628 -0.013833081963491797 -0.01806688865962456 -0.022620007645881332 -0.027426997202860237 -0.03242303977331296 -0.03754513259320669 -0.042727263283822044 -0.0479046937154176 -0.05301026989612031 -0.05797981912393196 -0.06274792746943683 -0.0672532555680483 -0.07143365458575524 -0.075231588480182 -0.07858922171169677 -0.08145430782066664 -0.08377564600669649 -0.08550944458282259 -0.08661518296858299 -0.08706221314621619 -0.086825882078671 -0.08589405331743208 -0.08426328989988736 -0.08194497412628987 -0.07896133870140049 -0.07535086404421662 -0.07116392638124402 -0.06646714204325119 -0.06133839445975912 -0.05586982622269143 -0.05016208019562752 -0.044325778014817185 -0.038475003956469356 -0.032727358042595446 -0.02719699048284667 -0.02199361141857495 -0.017215648358833727 -0.012948788647103632 -0.009259873536218552 -0.006195379803820447 -0.0037762839123673493 -0.0019966035693117948 -0.0008201475193687457 -0.0001825926571026341 0.0 -0.000446701706071055 -0.0020677132173210497 -0.004547890990573032 -0.007731616571886337 -0.011511674953902292 -0.015798105960824493 -0.02050966399675667 -0.025572678221307696 -0.030913610335894355 -0.03646021238115857 -0.042137174573414475 -0.04787131208449323 -0.053588115120279486 -0.059217541813828 -0.06468921236380978 -0.0699376825880499 -0.07489661969105797 -0.07950423806029293 -0.08369750250025028 -0.08741827380959542 -0.09060800838438277 -0.09321456574660301 -0.09518739876993808 -0.09648472941386295 -0.09706909363513459 -0.09691457903840317 -0.09600257759880754 -0.09432879957969084 -0.09189907107891157 -0.08873582541342265 -0.08487373031447683 -0.08036530490136956 -0.07527609220353033 -0.06968900699145908 -0.06369875673331465 -0.05741457924764043 -0.05095373582800434 -0.04444250119806053 -0.038008823706956636 -0.03178176418676937 -0.025883780617095693 -0.020429173773057537 -0.015516751371267571 -0.01122802721807625 -0.007621065184522016 -0.004729166192235988 -0.0025568738661399405 -0.0010807868621733653 -0.00025089973464009004 0.0 -0.0006813289678278696 -0.0024711771247445625 -0.005198278686454045 -0.008707223686509587 -0.012880161547035425 -0.017616882956598915 -0.02282577363225405 -0.028416551913011297 -0.034302254342587025 -0.04039541544513227 -0.046613545473310716 -0.052875356546521035 -0.0591062390041549 -0.06523247495487804 -0.07118611200873289 -0.07689814950642165 -0.08230392649398872 -0.08733653982077416 -0.09193325025990477 -0.09602948878441667 -0.0995660586693524 -0.10248363238083419 -0.10473038918702397 -0.10625689644326222 -0.10702391638895953 -0.10699761487237261 -0.1061573210758068 -0.10449098487680177 -0.1020026453122312 -0.09870797527012772 -0.0946411273816213 -0.08985008308928623 -0.08440243447018922 -0.07838015165308404 -0.07188380907695464 -0.06502639520257011 -0.05793559587912043 -0.05074646853752277 -0.0436017015608857 -0.03664336974110265 -0.03001155492795663 -0.023835884229345197 -0.018233350202111236 -0.013300689308527576 -0.009112485142122727 -0.005715619751661063 -0.0031290115260110686 -0.001341933561612415 -0.00031768878744646047 0.0 -0.0008351694681932467 -0.0027630911105992906 -0.00572102553714727 -0.00956329045004993 -0.014150746205110847 -0.01936050128225733 -0.025076563504365386 -0.031190953978598893 -0.037600341830534234 -0.04421122200333034 -0.05093522641553616 -0.05769352948714 -0.06440974851796101 -0.07101411139972302 -0.07743570934558247 -0.08360781535000873 -0.08946067349760849 -0.0949281519050928 -0.09994112619059142 -0.10443498388248612 -0.10834340495906802 -0.1116063151736529 -0.11416402458724521 -0.1159654301881908 -0.11696256869487962 -0.11711893575724198 -0.11640447581996553 -0.1148038464572301 -0.11231176610476257 -0.1089409501313424 -0.10471758589812495 -0.09968851387385347 -0.0939164229178613 -0.08748570023825221 -0.08049682231312522 -0.073070261764518 -0.06533960887551746 -0.057453115996748655 -0.049565412544446276 -0.041836738776436115 -0.034423697195354284 -0.027476873756475492 -0.021131702140916458 -0.015505723623294883 -0.010691053191498996 -0.006752801822813284 -0.0037248013950718665 -0.0016108352001932458 -0.00038528042974521034 0.0 -0.0008479639722982991 -0.0029434492912935525 -0.0061746885934972524 -0.010380182276597625 -0.015396232846441309 -0.021070995576041876 -0.0272690588698214 -0.033867146297479896 -0.040757963113705824 -0.04784421542491769 -0.055041465676674776 -0.06226961945881791 -0.06945626209516931 -0.07652814365130899 -0.08341644784244809 -0.09004909204571514 -0.09635756914458432 -0.10226971931258269 -0.10771740047638695 -0.11262949354250731 -0.11694001872268639 -0.12058144853601147 -0.12349314985729354 -0.12561517156504887 -0.1268969463740314 -0.12729166734675867 -0.12676514526785088 -0.12529078795756257 -0.12285842176074037 -0.11946973980552944 -0.11514673743024136 -0.1099272814706886 -0.10387259050420465 -0.09706234648548653 -0.08960046610239737 -0.08160905653188774 -0.07323172879048619 -0.06462585319266548 -0.05596301027825112 -0.04741953580847192 -0.039174417233365184 -0.031398944646465414 -0.024253219511350798 -0.017876506591796102 -0.012384122631674203 -0.007860427939340425 -0.004357915208888584 -0.0018945083320267295 -0.00045602515843983686 0.0 -0.000809533608091665 -0.003107950041091249 -0.006640446502623578 -0.01120803007678119 -0.01662333220273193 -0.02271828659840471 -0.02934492898880876 -0.0363780999971233 -0.04370783157091709 -0.05124048911026148 -0.058889121051685756 -0.06657606266464162 -0.07422393542099617 -0.08176087189700959 -0.08911241658598466 -0.09620840080800022 -0.10297504873981339 -0.10934261356951841 -0.11523753429728804 -0.12059055494799413 -0.12532915684617968 -0.12938610646437487 -0.13269240541410113 -0.13518621856687893 -0.13680650954602494 -0.1375022825800455 -0.13722700186955705 -0.1359480431007228 -0.13364188728845278 -0.13030355570106128 -0.12594236276955328 -0.12059086877189981 -0.11430067664710222 -0.10715013477718714 -0.09923936968905069 -0.09069575736822237 -0.08166728704122826 -0.0723249129016871 -0.06285366494343536 -0.053451580642536176 -0.044318815844304374 -0.03565389356527066 -0.027642193053711513 -0.02045132194514816 -0.014221207262356695 -0.009060869904891192 -0.005042327955586993 -0.0022004943136450556 -0.0005319802379688358 0.0 -0.0008352537082938348 -0.00332851281668345 -0.007134902447913553 -0.012017297311523073 -0.017775439021011107 -0.02423332555104009 -0.031242452373062498 -0.038674388604635984 -0.04642059037517053 -0.05438214159946189 -0.0624718928830938 -0.07060531693614239 -0.07870564517685624 -0.08669537618268881 -0.09450293293256942 -0.10205399039374395 -0.10927884363551918 -0.11610364761645825 -0.12245840022900799 -0.1282684755368696 -0.13346318514458425 -0.1379678590113268 -0.1417128840349959 -0.14462650079319628 -0.14664424675727075 -0.14770262858279906 -0.14774893971537892 -0.14673592877626457 -0.1446319100617055 -0.1414163922250698 -0.13709019421381 -0.13167169189667316 -0.12520629815662188 -0.11776257543749066 -0.1094400392877126 -0.10036402904039941 -0.0906905703717513 -0.0805988686020036 -0.07029222558392356 -0.059987613729092795 -0.049912596555815564 -0.04029270164524139 -0.03134574447523169 -0.02326916252406513 -0.01623434149586503 -0.010376786517066713 -0.005793084490702118 -0.002536045501940062 -0.0006154358236869694 0.0 -0.000943370032466768 -0.0035862998437063602 -0.007603779244341821 -0.012742976640645269 -0.0187935419189861 -0.025578093765670946 -0.03294269546489646 -0.04075659290868166 -0.048902409119037996 -0.057278144567708675 -0.06578819348966114 -0.07434826108757653 -0.08287642075259483 -0.09129924105258452 -0.09954221932356508 -0.10753665637292685 -0.11520995772557312 -0.12249337786016459 -0.12931268669781903 -0.1355966868926688 -0.14126843665721026 -0.146254317734256 -0.15047593686914765 -0.15385962473574766 -0.1563292098296125 -0.15781596434695674 -0.15825248373380182 -0.1575831309945339 -0.155759173726897 -0.1527496491387663 -0.14853765836151134 -0.1431312491021866 -0.1365603320264097 -0.12888668458969385 -0.12020041258527654 -0.11062766852075165 -0.10032516736068557 -0.08948401463908373 -0.07832090216062426 -0.06707698706710621 -0.056005415847100025 -0.045365685520498834 -0.03540897124082518 -0.02637033170925058 -0.018455023781273373 -0.01183204029650838 -0.006624838978087688 -0.002908890187126614 -0.0007084157454121001 0.0 -0.0010595480318442419 -0.003809248604031549 -0.007991052630085578 -0.013350650619132974 -0.019670542619251205 -0.026763226080365993 -0.03446813200963995 -0.04264249254114294 -0.05116361537202444 -0.059920345878697163 -0.06881755495266051 -0.07776666626055861 -0.0866909551394552 -0.09551504097750575 -0.10417110911985086 -0.1125883308741268 -0.12070031446953829 -0.12843498101545303 -0.13572300068308366 -0.14248819382547692 -0.14865657005499552 -0.15414731338649865 -0.15888223557664788 -0.16277755316050257 -0.16575378260633994 -0.167728619699728 -0.1686274185889127 -0.16837748015724355 -0.16691922665035933 -0.16420205110511987 -0.1601960727861398 -0.15488933602159538 -0.14829956485392992 -0.14047190525758899 -0.1314894270205204 -0.12146989300062977 -0.11057311498073553 -0.0989947736256209 -0.0869686274512657 -0.074755796796299 -0.06264084921040125 -0.050916643905809834 -0.03987556673327039 -0.029792573804741797 -0.020915262895350624 -0.013449537159874807 -0.007552876714056998 -0.003326328628914896 -0.0008132157588487869 0.0 -0.0011132510934407055 -0.003956993345388458 -0.00829083212848785 -0.01386039970095779 -0.020435475507953493 -0.027817660023137025 -0.03583237633201046 -0.04433065654864132 -0.0531811176364846 -0.06227383821567866 -0.07151036185399884 -0.08080797288283276 -0.09008834190915466 -0.09928304248287233 -0.10832224379959941 -0.11714185225298981 -0.12567270114698764 -0.13384886238272506 -0.14159726838608663 -0.14884666617826625 -0.15551769288887637 -0.16153222095931574 -0.16680410188639544 -0.17124890584465738 -0.17477567524284532 -0.177297227843297 -0.17872331796562232 -0.17897173942412173 -0.17796325021715048 -0.17563362511900532 -0.17193047794272873 -0.16682608150594055 -0.16031572038933062 -0.15243044310282117 -0.14323576354090392 -0.1328425965632797 -0.12140419067482026 -0.10912270499529751 -0.09624178979095162 -0.08304637347322977 -0.06984919365850081 -0.05698316923461519 -0.04478285898275682 -0.033572072811040334 -0.02364459623386495 -0.015252444690373613 -0.00859163084447469 -0.003796073955881294 -0.0009318510852758522 0.0 -0.0011090411042638394 -0.004051313529380898 -0.008539232872125642 -0.014305232628703955 -0.021109538335457593 -0.02874028474999926 -0.037017211707117484 -0.04578407621087718 -0.054911609720131004 -0.0642871627474766 -0.07381795865030735 -0.08341917505902002 -0.09301882333500724 -0.10254595404228005 -0.111937488549527 -0.12112683108592431 -0.13005198389588515 -0.13864442369120347 -0.14683790338910965 -0.15455764437286384 -0.16172954140226214 -0.16826989544200618 -0.17409496707854105 -0.1791115748524072 -0.18322712269628103 -0.18634147693512357 -0.1883577398450733 -0.1891758771728971 -0.1887045677030626 -0.18685699866871144 -0.183563985129799 -0.17877204957382442 -0.17245753235918349 -0.16462637292919707 -0.15532801044684794 -0.1446551480526201 -0.13275498799446264 -0.1198260293515629 -0.10612323641241958 -0.09194855463970442 -0.07764718438208285 -0.06359026107741168 -0.0501624584462767 -0.03773938387412794 -0.026671309163071123 -0.017261960538446607 -0.00975581723497166 -0.004325288877331695 -0.0010666314523633692 0.0 -0.0011020386874900153 -0.004137763361433235 -0.00876169798576496 -0.01469072648443361 -0.0216753945294403 -0.029500747227749095 -0.03798120324358567 -0.0469631067482065 -0.05631436432607365 -0.06592685785989758 -0.0757044307380913 -0.08556729931109094 -0.09544006850065402 -0.10525824098957418 -0.11495635010167347 -0.12447576927648421 -0.13375287023778218 -0.14272759184130734 -0.15133179506187602 -0.15949831535218528 -0.16714975557921152 -0.17420787962631035 -0.18058311157250964 -0.18618429093022204 -0.19090923975401997 -0.19465510017764126 -0.19731045997378857 -0.19876666766268308 -0.19891209808175833 -0.19764490114470534 -0.194869923576548 -0.19051314691534058 -0.18452136362862864 -0.1768778805211208 -0.16760404858945216 -0.15677448561228352 -0.14451795322179278 -0.13102862661698067 -0.11656221859748847 -0.1014387856471169 -0.08602997107811375 -0.0707503179564895 -0.05603475506458618 -0.04232034903705498 -0.0300192037717644