# vtk DataFile Version 3.0
vtk output
ASCII
DATASET STRUCTURED_GRID
DIMENSIONS 51 51 1
POINTS 2601 float
0.0 0.0 0.0
0.02 0.0 0.0
0.04 0.0 0.0
0.06 0.0 0.0
0.08 0.0 0.0
0.1 0.0 0.0
0.12 0.0 0.0
0.14 0.0 0.0
0.16 0.0 0.0
0.18 0.0 0.0
0.2 0.0 0.0
0.22 0.0 0.0
0.24 0.0 0.0
0.26 0.0 0.0
0.28 0.0 0.0
0.3 0.0 0.0
0.32 0.0 0.0
0.34 0.0 0.0
0.36 0.0 0.0
0.38 0.0 0.0
0.4 0.0 0.0
0.42 0.0 0.0
0.44 0.0 0.0
0.46 0.0 0.0
0.48 0.0 0.0
0.5 0.0 0.0
0.52 0.0 0.0
0.54 0.0 0.0
0.56 0.0 0.0
0.58 0.0 0.0
0.6 0.0 0.0
0.62 0.0 0.0
0.64 0.0 0.0
0.66 0.0 0.0
0.68 0.0 0.0
0.7000000000000001 0.0 0.0
0.72 0.0 0.0
0.74 0.0 0.0
0.76 0.0 0.0
0.78 0.0 0.0
0.8 0.0 0.0
0.8200000000000001 0.0 0.0
0.84 0.0 0.0
0.86 0.0 0.0
0.88 0.0 0.0
0.9 0.0 0.0
0.92 0.0 0.0
0.9400000000000001 0.0 0.0
0.96 0.0 0.0
0.98 0.0 0.0
1.0 0.0 0.0
0.0 0.02 0.0
0.02 0.02 0.0
0.04 0.02 0.0
0.06 0.02 0.0
0.08 0.02 0.0
0.1 0.02 0.0
0.12 0.02 0.0
0.14 0.02 0.0
0.16 0.02 0.0
0.18 0.02 0.0
0.2 0.02 0.0
0.22 0.02 0.0
0.24 0.02 0.0
0.26 0.02 0.0
0.28 0.02 0.0
0.3 0.02 0.0
0.32 0.02 0.0
0.34 0.02 0.0
0.36 0.02 0.0
0.38 0.02 0.0
0.4 0.02 0.0
0.42 0.02 0.0
0.44 0.02 0.0
0.46 0.02 0.0
0.48 0.02 0.0
0.5 0.02 0.0
0.52 0.02 0.0
0.54 0.02 0.0
0.56 0.02 0.0
0.58 0.02 0.0
0.6 0.02 0.0
0.62 0.02 0.0
0.64 0.02 0.0
0.66 0.02 0.0
0.68 0.02 0.0
0.7000000000000001 0.02 0.0
0.72 0.02 0.0
0.74 0.02 0.0
0.76 0.02 0.0
0.78 0.02 0.0
0.8 0.02 0.0
0.8200000000000001 0.02 0.0
0.84 0.02 0.0
0.86 0.02 0.0
0.88 0.02 0.0
0.9 0.02 0.0
0.92 0.02 0.0
0.9400000000000001 0.02 0.0
0.96 0.02 0.0
0.98 0.02 0.0
1.0 0.02 0.0
0.0 0.04 0.0
0.02 0.04 0.0
0.04 0.04 0.0
0.06 0.04 0.0
0.08 0.04 0.0
0.1 0.04 0.0
0.12 0.04 0.0
0.14 0.04 0.0
0.16 0.04 0.0
0.18 0.04 0.0
0.2 0.04 0.0
0.22 0.04 0.0
0.24 0.04 0.0
0.26 0.04 0.0
0.28 0.04 0.0
0.3 0.04 0.0
0.32 0.04 0.0
0.34 0.04 0.0
0.36 0.04 0.0
0.38 0.04 0.0
0.4 0.04 0.0
0.42 0.04 0.0
0.44 0.04 0.0
0.46 0.04 0.0
0.48 0.04 0.0
0.5 0.04 0.0
0.52 0.04 0.0
0.54 0.04 0.0
0.56 0.04 0.0
0.58 0.04 0.0
0.6 0.04 0.0
0.62 0.04 0.0
0.64 0.04 0.0
0.66 0.04 0.0
0.68 0.04 0.0
0.7000000000000001 0.04 0.0
0.72 0.04 0.0
0.74 0.04 0.0
0.76 0.04 0.0
0.78 0.04 0.0
0.8 0.04 0.0
0.8200000000000001 0.04 0.0
0.84 0.04 0.0
0.86 0.04 0.0
0.88 0.04 0.0
0.9 0.04 0.0
0.92 0.04 0.0
0.9400000000000001 0.04 0.0
0.96 0.04 0.0
0.98 0.04 0.0
1.0 0.04 0.0
0.0 0.06 0.0
0.02 0.06 0.0
0.04 0.06 0.0
0.06 0.06 0.0
0.08 0.06 0.0
0.1 0.06 0.0
0.12 0.06 0.0
0.14 0.06 0.0
0.16 0.06 0.0
0.18 0.06 0.0
0.2 0.06 0.0
0.22 0.06 0.0
0.24 0.06 0.0
0.26 0.06 0.0
0.28 0.06 0.0
0.3 0.06 0.0
0.32 0.06 0.0
0.34 0.06 0.0
0.36 0.06 0.0
0.38 0.06 0.0
0.4 0.06 0.0
0.42 0.06 0.0
0.44 0.06 0.0
0.46 0.06 0.0
0.48 0.06 0.0
0.5 0.06 0.0
0.52 0.06 0.0
0.54 0.06 0.0
0.56 0.06 0.0
0.58 0.06 0.0
0.6 0.06 0.0
0.62 0.06 0.0
0.64 0.06 0.0
0.66 0.06 0.0
0.68 0.06 0.0
0.7000000000000001 0.06 0.0
0.72 0.06 0.0
0.74 0.06 0.0
0.76 0.06 0.0
0.78 0.06 0.0
0.8 0.06 0.0
0.8200000000000001 0.06 0.0
0.84 0.06 0.0
0.86 0.06 0.0
0.88 0.06 0.0
0.9 0.06 0.0
0.92 0.06 0.0
0.9400000000000001 0.06 0.0
0.96 0.06 0.0
0.98 0.06 0.0
1.0 0.06 0.0
0.0 0.08 0.0
0.02 0.08 0.0
0.04 0.08 0.0
0.06 0.08 0.0
0.08 0.08 0.0
0.1 0.08 0.0
0.12 0.08 0.0
0.14 0.08 0.0
0.16 0.08 0.0
0.18 0.08 0.0
0.2 0.08 0.0
0.22 0.08 0.0
0.24 0.08 0.0
0.26 0.08 0.0
0.28 0.08 0.0
0.3 0.08 0.0
0.32 0.08 0.0
0.34 0.08 0.0
0.36 0.08 0.0
0.38 0.08 0.0
0.4 0.08 0.0
0.42 0.08 0.0
0.44 0.08 0.0
0.46 0.08 0.0
0.48 0.08 0.0
0.5 0.08 0.0
0.52 0.08 0.0
0.54 0.08 0.0
0.56 0.08 0.0
0.58 0.08 0.0
0.6 0.08 0.0
0.62 0.08 0.0
0.64 0.08 0.0
0.66 0.08 0.0
0.68 0.08 0.0
0.7000000000000001 0.08 0.0
0.72 0.08 0.0
0.74 0.08 0.0
0.76 0.08 0.0
0.78 0.08 0.0
0.8 0.08 0.0
0.8200000000000001 0.08 0.0
0.84 0.08 0.0
0.86 0.08 0.0
0.88 0.08 0.0
0.9 0.08 0.0
0.92 0.08 0.0
0.9400000000000001 0.08 0.0
0.96 0.08 0.0
0.98 0.08 0.0
1.0 0.08 0.0
0.0 0.1 0.0
0.02 0.1 0.0
0.04 0.1 0.0
0.06 0.1 0.0
0.08 0.1 0.0
0.1 0.1 0.0
0.12 0.1 0.0
0.14 0.1 0.0
0.16 0.1 0.0
0.18 0.1 0.0
0.2 0.1 0.0
0.22 0.1 0.0
0.24 0.1 0.0
0.26 0.1 0.0
0.28 0.1 0.0
0.3 0.1 0.0
0.32 0.1 0.0
0.34 0.1 0.0
0.36 0.1 0.0
0.38 0.1 0.0
0.4 0.1 0.0
0.42 0.1 0.0
0.44 0.1 0.0
0.46 0.1 0.0
0.48 0.1 0.0
0.5 0.1 0.0
0.52 0.1 0.0
0.54 0.1 0.0
0.56 0.1 0.0
0.58 0.1 0.0
0.6 0.1 0.0
0.62 0.1 0.0
0.64 0.1 0.0
0.66 0.1 0.0
0.68 0.1 0.0
0.7000000000000001 0.1 0.0
0.72 0.1 0.0
0.74 0.1 0.0
0.76 0.1 0.0
0.78 0.1 0.0
0.8 0.1 0.0
0.8200000000000001 0.1 0.0
0.84 0.1 0.0
0.86 0.1 0.0
0.88 0.1 0.0
0.9 0.1 0.0
0.92 0.1 0.0
0.9400000000000001 0.1 0.0
0.96 0.1 0.0
0.98 0.1 0.0
1.0 0.1 0.0
0.0 0.12 0.0
0.02 0.12 0.0
0.04 0.12 0.0
0.06 0.12 0.0
0.08 0.12 0.0
0.1 0.12 0.0
0.12 0.12 0.0
0.14 0.12 0.0
0.16 0.12 0.0
0.18 0.12 0.0
0.2 0.12 0.0
0.22 0.12 0.0
0.24 0.12 0.0
0.26 0.12 0.0
0.28 0.12 0.0
0.3 0.12 0.0
0.32 0.12 0.0
0.34 0.12 0.0
0.36 0.12 0.0
0.38 0.12 0.0
0.4 0.12 0.0
0.42 0.12 0.0
0.44 0.12 0.0
0.46 0.12 0.0
0.48 0.12 0.0
0.5 0.12 0.0
0.52 0.12 0.0
0.54 0.12 0.0
0.56 0.12 0.0
0.58 0.12 0.0
0.6 0.12 0.0
0.62 0.12 0.0
0.64 0.12 0.0
0.66 0.12 0.0
0.68 0.12 0.0
0.7000000000000001 0.12 0.0
0.72 0.12 0.0
0.74 0.12 0.0
0.76 0.12 0.0
0.78 0.12 0.0
0.8 0.12 0.0
0.8200000000000001 0.12 0.0
0.84 0.12 0.0
0.86 0.12 0.0
0.88 0.12 0.0
0.9 0.12 0.0
0.92 0.12 0.0
0.9400000000000001 0.12 0.0
0.96 0.12 0.0
0.98 0.12 0.0
1.0 0.12 0.0
0.0 0.14 0.0
0.02 0.14 0.0
0.04 0.14 0.0
0.06 0.14 0.0
0.08 0.14 0.0
0.1 0.14 0.0
0.12 0.14 0.0
0.14 0.14 0.0
0.16 0.14 0.0
0.18 0.14 0.0
0.2 0.14 0.0
0.22 0.14 0.0
0.24 0.14 0.0
0.26 0.14 0.0
0.28 0.14 0.0
0.3 0.14 0.0
0.32 0.14 0.0
0.34 0.14 0.0
0.36 0.14 0.0
0.38 0.14 0.0
0.4 0.14 0.0
0.42 0.14 0.0
0.44 0.14 0.0
0.46 0.14 0.0
0.48 0.14 0.0
0.5 0.14 0.0
0.52 0.14 0.0
0.54 0.14 0.0
0.56 0.14 0.0
0.58 0.14 0.0
0.6 0.14 0.0
0.62 0.14 0.0
0.64 0.14 0.0
0.66 0.14 0.0
0.68 0.14 0.0
0.7000000000000001 0.14 0.0
0.72 0.14 0.0
0.74 0.14 0.0
0.76 0.14 0.0
0.78 0.14 0.0
0.8 0.14 0.0
0.8200000000000001 0.14 0.0
0.84 0.14 0.0
0.86 0.14 0.0
0.88 0.14 0.0
0.9 0.14 0.0
0.92 0.14 0.0
0.9400000000000001 0.14 0.0
0.96 0.14 0.0
0.98 0.14 0.0
1.0 0.14 0.0
0.0 0.16 0.0
0.02 0.16 0.0
0.04 0.16 0.0
0.06 0.16 0.0
0.08 0.16 0.0
0.1 0.16 0.0
0.12 0.16 0.0
0.14 0.16 0.0
0.16 0.16 0.0
0.18 0.16 0.0
0.2 0.16 0.0
0.22 0.16 0.0
0.24 0.16 0.0
0.26 0.16 0.0
0.28 0.16 0.0
0.3 0.16 0.0
0.32 0.16 0.0
0.34 0.16 0.0
0.36 0.16 0.0
0.38 0.16 0.0
0.4 0.16 0.0
0.42 0.16 0.0
0.44 0.16 0.0
0.46 0.16 0.0
0.48 0.16 0.0
0.5 0.16 0.0
0.52 0.16 0.0
0.54 0.16 0.0
0.56 0.16 0.0
0.58 0.16 0.0
0.6 0.16 0.0
0.62 0.16 0.0
0.64 0.16 0.0
0.66 0.16 0.0
0.68 0.16 0.0
0.7000000000000001 0.16 0.0
0.72 0.16 0.0
0.74 0.16 0.0
0.76 0.16 0.0
0.78 0.16 0.0
0.8 0.16 0.0
0.8200000000000001 0.16 0.0
0.84 0.16 0.0
0.86 0.16 0.0
0.88 0.16 0.0
0.9 0.16 0.0
0.92 0.16 0.0
0.9400000000000001 0.16 0.0
0.96 0.16 0.0
0.98 0.16 0.0
1.0 0.16 0.0
0.0 0.18 0.0
0.02 0.18 0.0
0.04 0.18 0.0
0.06 0.18 0.0
0.08 0.18 0.0
0.1 0.18 0.0
0.12 0.18 0.0
0.14 0.18 0.0
0.16 0.18 0.0
0.18 0.18 0.0
0.2 0.18 0.0
0.22 0.18 0.0
0.24 0.18 0.0
0.26 0.18 0.0
0.28 0.18 0.0
0.3 0.18 0.0
0.32 0.18 0.0
0.34 0.18 0.0
0.36 0.18 0.0
0.38 0.18 0.0
0.4 0.18 0.0
0.42 0.18 0.0
0.44 0.18 0.0
0.46 0.18 0.0
0.48 0.18 0.0
0.5 0.18 0.0
0.52 0.18 0.0
0.54 0.18 0.0
0.56 0.18 0.0
0.58 0.18 0.0
0.6 0.18 0.0
0.62 0.18 0.0
0.64 0.18 0.0
0.66 0.18 0.0
0.68 0.18 0.0
0.7000000000000001 0.18 0.0
0.72 0.18 0.0
0.74 0.18 0.0
0.76 0.18 0.0
0.78 0.18 0.0
0.8 0.18 0.0
0.8200000000000001 0.18 0.0
0.84 0.18 0.0
0.86 0.18 0.0
0.88 0.18 0.0
0.9 0.18 0.0
0.92 0.18 0.0
0.9400000000000001 0.18 0.0
0.96 0.18 0.0
0.98 0.18 0.0
1.0 0.18 0.0
0.0 0.2 0.0
0.02 0.2 0.0
0.04 0.2 0.0
0.06 0.2 0.0
0.08 0.2 0.0
0.1 0.2 0.0
0.12 0.2 0.0
0.14 0.2 0.0
0.16 0.2 0.0
0.18 0.2 0.0
0.2 0.2 0.0
0.22 0.2 0.0
0.24 0.2 0.0
0.26 0.2 0.0
0.28 0.2 0.0
0.3 0.2 0.0
0.32 0.2 0.0
0.34 0.2 0.0
0.36 0.2 0.0
0.38 0.2 0.0
0.4 0.2 0.0
0.42 0.2 0.0
0.44 0.2 0.0
0.46 0.2 0.0
0.48 0.2 0.0
0.5 0.2 0.0
0.52 0.2 0.0
0.54 0.2 0.0
0.56 0.2 0.0
0.58 0.2 0.0
0.6 0.2 0.0
0.62 0.2 0.0
0.64 0.2 0.0
0.66 0.2 0.0
0.68 0.2 0.0
0.7000000000000001 0.2 0.0
0.72 0.2 0.0
0.74 0.2 0.0
0.76 0.2 0.0
0.78 0.2 0.0
0.8 0.2 0.0
0.8200000000000001 0.2 0.0
0.84 0.2 0.0
0.86 0.2 0.0
0.88 0.2 0.0
0.9 0.2 0.0
0.92 0.2 0.0
0.9400000000000001 0.2 0.0
0.96 0.2 0.0
0.98 0.2 0.0
1.0 0.2 0.0
0.0 0.22 0.0
0.02 0.22 0.0
0.04 0.22 0.0
0.06 0.22 0.0
0.08 0.22 0.0
0.1 0.22 0.0
0.12 0.22 0.0
0.14 0.22 0.0
0.16 0.22 0.0
0.18 0.22 0.0
0.2 0.22 0.0
0.22 0.22 0.0
0.24 0.22 0.0
0.26 0.22 0.0
0.28 0.22 0.0
0.3 0.22 0.0
0.32 0.22 0.0
0.34 0.22 0.0
0.36 0.22 0.0
0.38 0.22 0.0
0.4 0.22 0.0
0.42 0.22 0.0
0.44 0.22 0.0
0.46 0.22 0.0
0.48 0.22 0.0
0.5 0.22 0.0
0.52 0.22 0.0
0.54 0.22 0.0
0.56 0.22 0.0
0.58 0.22 0.0
0.6 0.22 0.0
0.62 0.22 0.0
0.64 0.22 0.0
0.66 0.22 0.0
0.68 0.22 0.0
0.7000000000000001 0.22 0.0
0.72 0.22 0.0
0.74 0.22 0.0
0.76 0.22 0.0
0.78 0.22 0.0
0.8 0.22 0.0
0.8200000000000001 0.22 0.0
0.84 0.22 0.0
0.86 0.22 0.0
0.88 0.22 0.0
0.9 0.22 0.0
0.92 0.22 0.0
0.9400000000000001 0.22 0.0
0.96 0.22 0.0
0.98 0.22 0.0
1.0 0.22 0.0
0.0 0.24 0.0
0.02 0.24 0.0
0.04 0.24 0.0
0.06 0.24 0.0
0.08 0.24 0.0
0.1 0.24 0.0
0.12 0.24 0.0
0.14 0.24 0.0
0.16 0.24 0.0
0.18 0.24 0.0
0.2 0.24 0.0
0.22 0.24 0.0
0.24 0.24 0.0
0.26 0.24 0.0
0.28 0.24 0.0
0.3 0.24 0.0
0.32 0.24 0.0
0.34 0.24 0.0
0.36 0.24 0.0
0.38 0.24 0.0
0.4 0.24 0.0
0.42 0.24 0.0
0.44 0.24 0.0
0.46 0.24 0.0
0.48 0.24 0.0
0.5 0.24 0.0
0.52 0.24 0.0
0.54 0.24 0.0
0.56 0.24 0.0
0.58 0.24 0.0
0.6 0.24 0.0
0.62 0.24 0.0
0.64 0.24 0.0
0.66 0.24 0.0
0.68 0.24 0.0
0.7000000000000001 0.24 0.0
0.72 0.24 0.0
0.74 0.24 0.0
0.76 0.24 0.0
0.78 0.24 0.0
0.8 0.24 0.0
0.8200000000000001 0.24 0.0
0.84 0.24 0.0
0.86 0.24 0.0
0.88 0.24 0.0
0.9 0.24 0.0
0.92 0.24 0.0
0.9400000000000001 0.24 0.0
0.96 0.24 0.0
0.98 0.24 0.0
1.0 0.24 0.0
0.0 0.26 0.0
0.02 0.26 0.0
0.04 0.26 0.0
0.06 0.26 0.0
0.08 0.26 0.0
0.1 0.26 0.0
0.12 0.26 0.0
0.14 0.26 0.0
0.16 0.26 0.0
0.18 0.26 0.0
0.2 0.26 0.0
0.22 0.26 0.0
0.24 0.26 0.0
0.26 0.26 0.0
0.28 0.26 0.0
0.3 0.26 0.0
0.32 0.26 0.0
0.34 0.26 0.0
0.36 0.26 0.0
0.38 0.26 0.0
0.4 0.26 0.0
0.42 0.26 0.0
0.44 0.26 0.0
0.46 0.26 0.0
0.48 0.26 0.0
[...]
CELL_DATA 2500
SCALARS u float 1
LOOKUP_TABLE u_cell_table
-0.0009040033237715781 -0.0004770280217754575 9.310202103534867e-07 0.0003037196068565476 0.0003752657135226044 0.00021121071274930324 -0.00015404307347942293 -0.0006627615129793753 -0.0012518857824063262 -0.001866314816602846 -0.0024656382008188976 -0.003026096333850374 -0.0035382873305343813 -0.00400325642276121 -0.004427391896886258 -0.0048185499819665255 -0.005182739578424358 -0.00552297544234334 -0.005838548339686983 -0.006125945649791213 -0.006379287957675884 -0.006591758843366045 -0.006755974494041963 -0.0068651534469670785 -0.006913115411856312 -0.0068951703221054065 -0.0068078832222174535 -0.0066498077904784784 -0.006421109670397967 -0.006124167026201527 -0.005763079875816764 -0.005344152400101223 -0.004875318887411267 -0.004366501813661549 -0.003828942531584334 -0.003275384757015455 -0.0027192532754696523 -0.002174600028768079 -0.0016551534008452447 -0.0011741347858205205 -0.0007433088443843901 -0.00037262731504455115 -6.891500206904661e-05 0.00016559174627469233 0.00033704985489336423 0.00046776026205581006 0.0006149530878787103 0.0009113793260679404 0.0016323231280834399 0.0 -0.0004691253070514934 -0.00028549290228150487 -0.000156792181665913 -0.0002793605866979402 -0.0006940678493713383 -0.0013844443365415805 -0.002307972769255575 -0.003408182181256649 -0.004627331329461264 -0.005914002481435121 -0.0072283067723300605 -0.008541073629646512 -0.009833385179434542 -0.011092017284037048 -0.012307991164427167 -0.013472141714689509 -0.014575331766120532 -0.015605540488806637 -0.016549955512099826 -0.017393084680475224 -0.018119809174773484 -0.018713682843126845 -0.019160230718557124 -0.019445080543508148 -0.01955727458830478 -0.01948723956828477 -0.01923005689073836 -0.01878329848006749 -0.01815013344486454 -0.01733698334816064 -0.016356322831676942 -0.015224120965683551 -0.013962216888119085 -0.01259552408310367 -0.011153891013435708 -0.009669067316507012 -0.008175969134293658 -0.00670942240911654 -0.005304866714138007 -0.003995065079068417 -0.0028103562285309133 -0.0017753151359860618 -0.0009082080935221546 -0.0002170716258182144 0.0003021108352254737 0.0006687169396190579 0.0009118219717509471 0.001037381116326275 0.0009090791190664391 0.0 0.00034441398166276416 0.00013116223774144463 -0.0003663547773034724 -0.0011513225384070557 -0.002209634682753877 -0.003496738595620317 -0.004966747557905687 -0.006581979175895502 -0.00831155134546276 -0.01013052208092331 -0.01201572631780282 -0.013945220408999034 -0.015894879260220866 -0.01783998394589341 -0.019753049449182356 -0.021606887271479806 -0.023372583653010898 -0.02502295601201783 -0.026529995517587366 -0.027868361995161097 -0.029012388269248113 -0.029939808323307365 -0.0306286834646402 -0.03106151539048117 -0.031222257713000287 -0.03110070966572298 -0.030689556002584436 -0.02998877461905413 -0.029002556713802488 -0.027743446391881043 -0.026229011644252696 -0.02448546164073083 -0.022543951831219135 -0.02044348522478622 -0.018226834299002743 -0.015942642337630458 -0.01364100219245917 -0.011374752220836705 -0.009194890421982082 -0.0071512215871867854 -0.00528782243799851 -0.0036431152864581256 -0.002245561617402395 -0.001113592758347412 -0.0002530312892455712 0.00033918687196107344 0.0006671326933073424 0.0007166834981909649 0.00045483571008401747 0.0 0.0005324729419365487 -9.134952426490965e-05 -0.0011110674693774545 -0.002386505715501426 -0.003891315838615332 -0.0056008221386510265 -0.0074952592958461555 -0.009560794696734175 -0.011785226209613628 -0.014150354819815258 -0.01663156112516635 -0.019195165828104807 -0.02180296275151145 -0.024411579639676856 -0.026978375668640614 -0.029459725025206843 -0.03181613998530278 -0.034008599671699 -0.03600294774296312 -0.037765117973585005 -0.03926576967484308 -0.04047543529878798 -0.04136992117676113 -0.04192573653820203 -0.04212612222334485 -0.04195664973436924 -0.0414114693695523 -0.0404888630585317 -0.039197312006216845 -0.037550837789406634 -0.03557454370705964 -0.03329958366588053 -0.03076786527964068 -0.028026579200618868 -0.025131921444478414 -0.0221432361301166 -0.019125694261214483 -0.016144189425331686 -0.013265083464072892 -0.01055014837500605 -0.00805757710852353 -0.005836332756479836 -0.003926876578934624 -0.002356868986179134 -0.0011431185347422167 -0.0002908726959898037 0.00020188883452278714 0.000349350693768801 0.00021064040976454557 0.0 2.467147819768423e-05 -0.0008262265178058118 -0.00209393363066149 -0.003628769152732326 -0.005414148221648294 -0.007456862439787458 -0.009757446544906885 -0.012308169982186434 -0.015087514337584495 -0.01806153789064441 -0.02118322548982372 -0.024399757076993125 -0.027653340441484577 -0.03088873591481116 -0.03405140682426206 -0.03709316579576676 -0.03996735644794555 -0.04263346828353762 -0.04505097408718875 -0.047184464811972415 -0.04899755386653183 -0.05045919992428428 -0.051538050042401494 -0.05220969103311121 -0.052451221599298534 -0.052248896231142546 -0.05159267027290474 -0.05048377109222187 -0.04892905936588467 -0.04694815238721198 -0.04456745515090816 -0.04182645351596019 -0.03877128902423411 -0.035459987881676445 -0.031955615428151014 -0.028330324188309948 -0.024658165732079743 -0.021017956220555863 -0.01748599911957382 -0.014137956355423337 -0.01104186810932967 -0.008259404229959421 -0.005839851622734674 -0.003821483015206146 -0.0022273597711398667 -0.0010668695326429302 -0.0003307151474169842 1.7261126668279838e-05 6.720976163160067e-05 0.0 -0.0006467722995164461 -0.001520329759640441 -0.002835371918073714 -0.004541277591875238 -0.006622017500948624 -0.00907661567323705 -0.011890127916841459 -0.015026661412813875 -0.018435273442902217 -0.022052250233218162 -0.025810611274895513 -0.02964136668291698 -0.03348140668152719 -0.03727034384485739 -0.04095583989683705 -0.04448714383000347 -0.047819842605514244 -0.05090837632495982 -0.053711959970823495 -0.056187403816230615 -0.05829662347430753 -0.05999990570183491 -0.061264521349706856 -0.06205813034059752 -0.062357884989400175 -0.062143758245828934 -0.06140767834290493 -0.060146699401266344 -0.058371808833136835 -0.05610086628327203 -0.053366685019789445 -0.05020958908398214 -0.04668441896394945 -0.04285268584977389 -0.038788313745235156 -0.03456941713636405 -0.030282644096965763 -0.026014721273364703 -0.02185548677772337 -0.017889546592820868 -0.014198286606301578 -0.010852195675307442 -0.007912375208787396 -0.005424150098414555 -0.0034182567707095536 -0.0019051107073022955 -0.0008729855903353355 -0.00027761815042952787 -3.196302369242833e-05 0.0 -0.000886822782610813 -0.001769351647667288 -0.0031876067010880205 -0.005180335823715034 -0.007704519706100801 -0.010710777072908682 -0.014136163574528368 -0.017906197963536534 -0.02193868492825201 -0.026154468834117567 -0.030477918862206962 -0.034843430624990165 -0.039189962685308694 -0.043465057689054405 -0.04761670166083643 -0.05159806917005324 -0.0553592605179071 -0.05885413203003784 -0.062032570154214366 -0.06484915486221661 -0.06725565178463438 -0.06921075768689958 -0.07067247227691043 -0.07160835364671923 -0.07198770561800662 -0.07179198411291969 -0.07100685642306044 -0.06963245035288773 -0.06767530628085339 -0.06515809264307049 -0.06211132622780203 -0.05858210972454781 -0.05462551227097345 -0.05031203539184369 -0.045718627281821377 -0.04093462323059295 -0.03605240016051081 -0.031171720675761568 -0.026390268318782766 -0.021806576675000654 -0.017510909373883714 -0.013587200774290138 -0.010104901359053746 -0.007120313775098537 -0.004669605583365685 -0.0027690227084561413 -0.0014079180449908034 -0.0005465294286469064 -0.00011088041867926898 0.0 -0.0005852236316991148 -0.001647967623489256 -0.003402659165727781 -0.005866402360643763 -0.00895535496822217 -0.012563246036993523 -0.01658659759738504 -0.02092587391783973 -0.025493376354541946 -0.03021131350964905 -0.03501565985092052 -0.039847746144612194 -0.04465664662197761 -0.0493896392758432 -0.05399725864857132 -0.05842478356325428 -0.0626202489574186 -0.06652646025069028 -0.07009080926570195 -0.07325700436282043 -0.07597577695498543 -0.07819611158015691 -0.07987646310826912 -0.08097568941319498 -0.08146458845705572 -0.08131676272419254 -0.08052021922555318 -0.07906827037679913 -0.07697083578322489 -0.07424531622998583 -0.07092710771497181 -0.06706027606610146 -0.0627068594743123 -0.05793724912838751 -0.05283792763747804 -0.04750144022377005 -0.04203230884530601 -0.0365366708248134 -0.031126395866639962 -0.025908730555047867 -0.020988933622682553 -0.016460527156040787 -0.012406948448307451 -0.008892994199564396 -0.005965768248589105 -0.0036475202099970987 -0.0019359436062468005 -0.0007993927524258983 -0.0001800296609293108 0.0 -0.0001656229168165549 -0.0015747979267035765 -0.003828465749684702 -0.006827875884572936 -0.010453420677638476 -0.014575876114512127 -0.019080193186870577 -0.023873608469360708 -0.028878941622200557 -0.034034621152640124 -0.03928361045646215 -0.04457454832278445 -0.04985170140946223 -0.05506080102871591 -0.06014090452677048 -0.06503360477310058 -0.0696749353106821 -0.07400600491057212 -0.07796389824268854 -0.08149294577411625 -0.08453474786379515 -0.08704003769781085 -0.08895835952108949 -0.09025050701568113 -0.09087823135375969 -0.0908170108428417 -0.09004593803528381 -0.08856043778698156 -0.08636233222650176 -0.08347202026542763 -0.0799185525238125 -0.07575074728224404 -0.07102710695916332 -0.06582542933340228 -0.060232365714250655 -0.054351095343307405 -0.048290401098954584 -0.042170224139374546 -0.036110409416171496 -0.03023427997184568 -0.024657536664503 -0.0194903393814471 -0.01482710010648692 -0.010747692517797369 -0.007308894304837141 -0.004545361249453375 -0.0024637216156288594 -0.001044936270468805 -0.0002442639386093698 0.0 -0.00011581000171674832 -0.0018678862737613357 -0.004559102404609534 -0.007979862376108846 -0.011997613535972378 -0.016493530751285058 -0.021371158709397948 -0.026552083899055594 -0.031973271624904195 -0.037574123231665105 -0.04329732312634195 -0.04907943558062384 -0.05485804909223842 -0.060564378587838655 -0.06613342577297637 -0.07149556832642424 -0.07658748038311917 -0.08134193607198349 -0.0856992289918899 -0.08959587978713311 -0.09297691671646478 -0.09578430380307873 -0.09797014769692303 -0.0994852716822281 -0.10029303792546092 -0.10035821248137458 -0.0996609600842374 -0.09818604871600789 -0.09593655605810504 -0.09292333203945338 -0.08917787222595797 -0.08474183906173932 -0.07967858350475578 -0.07406247767907156 -0.06798853405025398 -0.061561240019713394 -0.05490184661013114 -0.048136608254881974 -0.041401630455322434 -0.03483076712168306 -0.028558353856570844 -0.022707461424241595 -0.017391243313197937 -0.012702552126285082 -0.008714863511319334 -0.005474471617724309 -0.003002271160173551 -0.0012903637111837901 -0.00030693424787005513 0.0 -0.0005071257445743042 -0.002446958808840248 -0.005365942199426122 -0.009035715799672613 -0.013322448014922945 -0.018127530540377315 -0.02336556606275271 -0.028962824329370786 -0.03484594120415947 -0.04094373568294894 -0.047179375813627356 -0.053478969439183996 -0.05976490087718967 -0.06596628968247438 -0.07200980915517732 -0.07783016811079044 -0.08335854697037082 -0.08853376284664853 -0.0932896805164436 -0.0975677459776227 -0.10130429325154278 -0.10444441086604608 -0.10692947110857096 -0.10871185903979103 -0.10974282793351835 -0.10998757830345367 -0.10941354386164676 -0.10800539573802044 -0.10575382074232026 -0.10266997824333808 -0.09877463353598857 -0.09411151369989906 -0.08873653412962569 -0.08272944396416697 -0.0761827201574386 -0.06921085336499502 -0.061938533631308385 -0.054507158705029264 -0.047062231846687404 -0.039757109395668414 -0.03274006465516647 -0.02615589289207049 -0.02013367350308813 -0.01478735739115019 -0.010205668522379663 -0.006453086735901999 -0.0035635333713694454 -0.0015433232768708892 -0.000370290403382909 0.0 -0.000972552610898153 -0.002955002923711103 -0.005956657500929408 -0.009804812241041218 -0.014362744635623578 -0.019523298266416918 -0.025190339771878716 -0.03126682797170366 -0.03765930753646054 -0.044272434646699596 -0.05101857900211814 -0.05781136614426121 -0.06457547871525816 -0.07123610429497707 -0.07772828841498587 -0.08398384928208942 -0.08994206983694955 -0.09553599058451714 -0.10070517455465934 -0.10538209382491082 -0.10950659832131289 -0.11301248280583312 -0.11584297423789372 -0.11793754618887216 -0.11924787437756364 -0.11972509904676534 -0.11933587522055612 -0.1180503118505067 -0.11585776630962127 -0.11275548215168088 -0.10876361749073037 -0.10391435522986466 -0.09826554594222106 -0.0918898397153439 -0.08488616388440576 -0.07736826531773627 -0.06947329081170779 -0.06134927708916483 -0.05316043228605529 -0.045073593734667496 -0.03726047989830392 -0.0298839097647838 -0.02309808736980741 -0.01703611349887481 -0.01180993654197953 -0.00750103676165929 -0.004161739677829046 -0.001810734567117861 -0.0004368225147579575 0.0 -0.0011182881255535596 -0.0031432198748872282 -0.006267076900183899 -0.010366400867533838 -0.015283980114238921 -0.020881018211788067 -0.02702627549150285 -0.03359766738703159 -0.04047814989274191 -0.047565566325605 -0.05476560451761729 -0.06199986733382553 -0.06919347089033215 -0.07628281360896758 -0.0832011208627006 -0.0898886883305261 -0.09627843657932211 -0.10230896881599157 -0.10791028473771534 -0.11301876169029323 -0.11756282031081852 -0.12147896748127213 -0.12469751410455651 -0.12715916166339536 -0.12880112741723543 -0.12957397278917096 -0.129428529835945 -0.12833273141795587 -0.1262595630163057 -0.12320350163990643 -0.11916938049045052 -0.11418785717662754 -0.10830479648305631 -0.10159497949134307 -0.09415128543052939 -0.08609567631419655 -0.07756736334378067 -0.06873022202503992 -0.05975941547880937 -0.050844951001951855 -0.04217702454275205 -0.03394640229937686 -0.026329810173529887 -0.01948881915702398 -0.01355741233929052 -0.008641488350674043 -0.004810742937737692 -0.002100397032494936 -0.0005084529673317822 0.0 -0.000918417762184444 -0.0031000504682656047 -0.006492062974510048 -0.010946883043197846 -0.016282791464561873 -0.022323523868882655 -0.028913752371027678 -0.03591389960670079 -0.04320756449631723 -0.05069296694956317 -0.05828855574681975 -0.06591870135325593 -0.07351986607436171 -0.08102529603399485 -0.08837508085567944 -0.09550145757653813 -0.10234222047826022 -0.10882594891219503 -0.11488732470192026 -0.12045188386261975 -0.12545236277327187 -0.12981323922758764 -0.13346770575927483 -0.13634255064637663 -0.1383755269494982 -0.13950110648255354 -0.1396680564561827 -0.13882646389975262 -0.13694526152520234 -0.13400059961319286 -0.12999284663730887 -0.12493604125694181 -0.11887367664075855 -0.11186857330701322 -0.10401641880313307 -0.09543503448772896 -0.08627447181091102 -0.07670461654720859 -0.06692090058320384 -0.05712975136494744 -0.0475498868484716 -0.03839631488010169 -0.029878531266171595 -0.02218513873113434 -0.015481373256662767 -0.00989708737143562 -0.005526051082303026 -0.0024193809196317736 -0.0005875956152127568 0.0 -0.0006883611999511654 -0.0031140624723897427 -0.006848245232748274 -0.011669684593144124 -0.01737488217246844 -0.023777168251428695 -0.030714054469459087 -0.038054466316416666 -0.04568773323401302 -0.05352630300639065 -0.061490103891005815 -0.06951160979569172 -0.0775205002021017 -0.08545389014044046 -0.09324183022674666 -0.1008209846019789 -0.10811942014411373 -0.11507194573732729 -0.12160387079649358 -0.12764736328859702 -0.13312475686966646 -0.1379656993101306 -0.14209073893627794 -0.1454290503973646 -0.14790291367482067 -0.1494458005342721 -0.14998824498516997 -0.14947611537303318 -0.14785817065644555 -0.1451042092164551 -0.14119424477988596 -0.13613601165728645 -0.1299553029006626 -0.12271194310646542 -0.11449028030118119 -0.10541228343481537 -0.09562677736094789 -0.08531816253389088 -0.07469309904009144 -0.0639838819682983 -0.05343226981507708 -0.043287954933214245 -0.03379096369685447 -0.025167453703168727 -0.017613717620731724 -0.011292563455708449 -0.006322194866946526 -0.0027756677089539666 -0.0006761347155377893 0.0 -0.000716843042567393 -0.003350544492996305 -0.007350882191170221 -0.012436902593270774 -0.018400085942834495 -0.02505979580483656 -0.032267891365578456 -0.039899789165346186 -0.04785553855619336 -0.05604385446671016 -0.06438683528579965 -0.0728054837695669 -0.08123034170101612 -0.08958741958335648 -0.09781182392293417 -0.10583198064571606 -0.11358456621510767 -0.1209971698771077 -0.12800439058785404 -0.13452992437829658 -0.1405037524239835 -0.14584447006916645 -0.15047726253115237 -0.15431707778532752 -0.15728706272318088 -0.1593031099127202 -0.16029258038310912 -0.16018070265450082 -0.15890945224007325 -0.15642600081023122 -0.15270145231689233 -0.14772116838919302 -0.14150276171212006 -0.13408755236536926 -0.12555661700945014 -0.11602191538264005 -0.10563861120768815 -0.09459397836428574 -0.0831141370717769 -0.07144925414029815 -0.05987383087266598 -0.04866833162459525 -0.03811427069990737 -0.02847480234257397 -0.019988083536582837 -0.012851028857519008 -0.007215029955008441 -0.0031764181091932654 -0.0007765046896535078 0.0 -0.0009748241702451609 -0.003701671958169196 -0.007823045395664587 -0.01306034168842098 -0.01920232487639064 -0.026079854265183722 -0.03354683782854606 -0.0414814784945367 -0.049772374777164244 -0.058323750343429084 -0.06704245111751826 -0.07584888454451737 -0.08466331102666431 -0.0934188653158858 -0.10204497587220179 -0.11048142822176799 -0.1186598980350754 -0.12651959879604543 -0.13398828537570412 -0.140999436760673 -0.14747346324677693 -0.15333589215129642 -0.1584992736691733 -0.16288187175214375 -0.16639079303172832 -0.16894094797382747 -0.17044000358805536 -0.17080761123944965 -0.1699626568184997 -0.1678426956035131 -0.1643936378413418 -0.15958913060739122 -0.15342235391916811 -0.14592455135927276 -0.1371577774469542 -0.12723091061740105 -0.11629128759345664 -0.10453581055075144 -0.09219900420005239 -0.07955698096363752 -0.06691035493300476 -0.054580558071700105 -0.04288859924899296 -0.03214629006818386 -0.02263499628906171 -0.014596867512371008 -0.008219067893356927 -0.003629683809224884 -0.000890609165432927 0.0 -0.001195373159357897 -0.003938280506817664 -0.008109680479103478 -0.013465012121020123 -0.019790726484540704 -0.0269064340903135 -0.03465846001844626 -0.04290644277031344 -0.0515297474326917 -0.06041634588999931 -0.06947357831896038 -0.07861446388957831 -0.08776944650441003 -0.09686880967022474 -0.10585552572430429 -0.11466579896658177 -0.12324421712078475 -0.13152394251592572 -0.13944391524431943 -0.14692914093065393 -0.1539090748120373 -0.16029834310046243 -0.1660156320466713 -0.17096537165361947 -0.17505681583866306 -0.17818736368444607 -0.1802618594709563 -0.18117823890244003 -0.1808471912872243 -0.179180566846026 -0.17611144396947984 -0.1715854103554379 -0.16558076625926396 -0.15810209733350175 -0.14919945922014818 -0.13896251334353943 -0.12753635022858645 -0.11511332044857588 -0.1019423128304495 -0.08831514939489066 -0.07456673809514285 -0.0610546381573391 -0.04815040678135708 -0.036214837126635785 -0.025585089808350593 -0.016551971945821795 -0.009349857044187188 -0.004142619977453547 -0.00102092720162478 0.0 -0.001191259413996347 -0.003972388333304677 -0.008234655295631388 -0.013751646588543854 -0.0202955404471032 -0.027668559088967738 -0.03569429429358974 -0.04422249737827529 -0.0531190683493252 -0.06227598396849315 -0.07159727820120844 -0.08100895881759942 -0.0904404520020834 -0.09983614457160722 -0.10913531664972154 -0.11828689341595904 -0.12722919285817738 -0.1359071811041114 -0.14425205004226493 -0.15219975596782803 -0.1596706475830937 -0.1665885017052331 -0.17286078781834455 -0.178397825298161 -0.18309441269416715 -0.1868490730282628 -0.1895478369160913 -0.19108380685467877 -0.1913437640389524 -0.19022831242803534 -0.1876417680486041 -0.18351308673306552 -0.17778911665998615 -0.17045591385158615 -0.16153438808560103 -0.1511003010597399 -0.1392797911231582 -0.12626474799291013 -0.1123042743459154 -0.09771122828443804 -0.08284576380183875 -0.06811030338022282 -0.05392445171224167 -0.0407103609199264